    1C
    1UUSER                                                              
    1UDATE              29.june.2020                                    
    1UTIME              22:09:12                                        
    1UHOST                                                              
    1UPGM               CalculiX                                        
    1UVERSION           Version 2.11                             
    1UCOMPILETIME       So 31. Jul 13:26:31 CEST 2016                    
    1UDIR                                                               
    1UDBN                                                               
    1UMAT    1SOLIDMATERIAL                                             
    2C                           520                                     1
 -1         1 0.00000E+00 0.00000E+00 1.00000E+03
 -1         2 0.00000E+00 0.00000E+00 0.00000E+00
 -1         3 0.00000E+00 1.00000E+03 1.00000E+03
 -1         4 0.00000E+00 1.00000E+03 0.00000E+00
 -1         5 8.00000E+03 0.00000E+00 1.00000E+03
 -1         6 8.00000E+03 0.00000E+00 0.00000E+00
 -1         7 8.00000E+03 1.00000E+03 1.00000E+03
 -1         8 8.00000E+03 1.00000E+03 0.00000E+00
 -1         9 0.00000E+00 0.00000E+00 5.00000E+02
 -1        10 0.00000E+00 0.00000E+00 2.50000E+02
 -1        11 0.00000E+00 0.00000E+00 7.50000E+02
 -1        12 0.00000E+00 5.00000E+02 1.00000E+03
 -1        13 0.00000E+00 2.50000E+02 1.00000E+03
 -1        14 0.00000E+00 7.50000E+02 1.00000E+03
 -1        15 0.00000E+00 1.00000E+03 5.00000E+02
 -1        16 0.00000E+00 1.00000E+03 2.50000E+02
 -1        17 0.00000E+00 1.00000E+03 7.50000E+02
 -1        18 0.00000E+00 5.00000E+02 0.00000E+00
 -1        19 0.00000E+00 2.50000E+02 0.00000E+00
 -1        20 0.00000E+00 7.50000E+02 0.00000E+00
 -1        21 8.00000E+03 0.00000E+00 5.00000E+02
 -1        22 8.00000E+03 0.00000E+00 2.50000E+02
 -1        23 8.00000E+03 0.00000E+00 7.50000E+02
 -1        24 8.00000E+03 5.00000E+02 1.00000E+03
 -1        25 8.00000E+03 2.50000E+02 1.00000E+03
 -1        26 8.00000E+03 7.50000E+02 1.00000E+03
 -1        27 8.00000E+03 1.00000E+03 5.00000E+02
 -1        28 8.00000E+03 1.00000E+03 2.50000E+02
 -1        29 8.00000E+03 1.00000E+03 7.50000E+02
 -1        30 8.00000E+03 5.00000E+02 0.00000E+00
 -1        31 8.00000E+03 2.50000E+02 0.00000E+00
 -1        32 8.00000E+03 7.50000E+02 0.00000E+00
 -1        33 8.00000E+02 0.00000E+00 0.00000E+00
 -1        34 1.60000E+03 0.00000E+00 0.00000E+00
 -1        35 2.40000E+03 0.00000E+00 0.00000E+00
 -1        36 3.20000E+03 0.00000E+00 0.00000E+00
 -1        37 4.00000E+03 0.00000E+00 0.00000E+00
 -1        38 4.80000E+03 0.00000E+00 0.00000E+00
 -1        39 5.60000E+03 0.00000E+00 0.00000E+00
 -1        40 6.40000E+03 0.00000E+00 0.00000E+00
 -1        41 7.20000E+03 0.00000E+00 0.00000E+00
 -1        42 4.00000E+02 0.00000E+00 0.00000E+00
 -1        43 1.20000E+03 0.00000E+00 0.00000E+00
 -1        44 2.00000E+03 0.00000E+00 0.00000E+00
 -1        45 2.80000E+03 0.00000E+00 0.00000E+00
 -1        46 3.60000E+03 0.00000E+00 0.00000E+00
 -1        47 4.40000E+03 0.00000E+00 0.00000E+00
 -1        48 5.20000E+03 0.00000E+00 0.00000E+00
 -1        49 6.00000E+03 0.00000E+00 0.00000E+00
 -1        50 6.80000E+03 0.00000E+00 0.00000E+00
 -1        51 7.60000E+03 0.00000E+00 0.00000E+00
 -1        52 8.00000E+02 0.00000E+00 1.00000E+03
 -1        53 1.60000E+03 0.00000E+00 1.00000E+03
 -1        54 2.40000E+03 0.00000E+00 1.00000E+03
 -1        55 3.20000E+03 0.00000E+00 1.00000E+03
 -1        56 4.00000E+03 0.00000E+00 1.00000E+03
 -1        57 4.80000E+03 0.00000E+00 1.00000E+03
 -1        58 5.60000E+03 0.00000E+00 1.00000E+03
 -1        59 6.40000E+03 0.00000E+00 1.00000E+03
 -1        60 7.20000E+03 0.00000E+00 1.00000E+03
 -1        61 4.00000E+02 0.00000E+00 1.00000E+03
 -1        62 1.20000E+03 0.00000E+00 1.00000E+03
 -1        63 2.00000E+03 0.00000E+00 1.00000E+03
 -1        64 2.80000E+03 0.00000E+00 1.00000E+03
 -1        65 3.60000E+03 0.00000E+00 1.00000E+03
 -1        66 4.40000E+03 0.00000E+00 1.00000E+03
 -1        67 5.20000E+03 0.00000E+00 1.00000E+03
 -1        68 6.00000E+03 0.00000E+00 1.00000E+03
 -1        69 6.80000E+03 0.00000E+00 1.00000E+03
 -1        70 7.60000E+03 0.00000E+00 1.00000E+03
 -1        71 8.00000E+02 1.00000E+03 0.00000E+00
 -1        72 1.60000E+03 1.00000E+03 0.00000E+00
 -1        73 2.40000E+03 1.00000E+03 0.00000E+00
 -1        74 3.20000E+03 1.00000E+03 0.00000E+00
 -1        75 4.00000E+03 1.00000E+03 0.00000E+00
 -1        76 4.80000E+03 1.00000E+03 0.00000E+00
 -1        77 5.60000E+03 1.00000E+03 0.00000E+00
 -1        78 6.40000E+03 1.00000E+03 0.00000E+00
 -1        79 7.20000E+03 1.00000E+03 0.00000E+00
 -1        80 4.00000E+02 1.00000E+03 0.00000E+00
 -1        81 1.20000E+03 1.00000E+03 0.00000E+00
 -1        82 2.00000E+03 1.00000E+03 0.00000E+00
 -1        83 2.80000E+03 1.00000E+03 0.00000E+00
 -1        84 3.60000E+03 1.00000E+03 0.00000E+00
 -1        85 4.40000E+03 1.00000E+03 0.00000E+00
 -1        86 5.20000E+03 1.00000E+03 0.00000E+00
 -1        87 6.00000E+03 1.00000E+03 0.00000E+00
 -1        88 6.80000E+03 1.00000E+03 0.00000E+00
 -1        89 7.60000E+03 1.00000E+03 0.00000E+00
 -1        90 8.00000E+02 1.00000E+03 1.00000E+03
 -1        91 1.60000E+03 1.00000E+03 1.00000E+03
 -1        92 2.40000E+03 1.00000E+03 1.00000E+03
 -1        93 3.20000E+03 1.00000E+03 1.00000E+03
 -1        94 4.00000E+03 1.00000E+03 1.00000E+03
 -1        95 4.80000E+03 1.00000E+03 1.00000E+03
 -1        96 5.60000E+03 1.00000E+03 1.00000E+03
 -1        97 6.40000E+03 1.00000E+03 1.00000E+03
 -1        98 7.20000E+03 1.00000E+03 1.00000E+03
 -1        99 4.00000E+02 1.00000E+03 1.00000E+03
 -1       100 1.20000E+03 1.00000E+03 1.00000E+03
 -1       101 2.00000E+03 1.00000E+03 1.00000E+03
 -1       102 2.80000E+03 1.00000E+03 1.00000E+03
 -1       103 3.60000E+03 1.00000E+03 1.00000E+03
 -1       104 4.40000E+03 1.00000E+03 1.00000E+03
 -1       105 5.20000E+03 1.00000E+03 1.00000E+03
 -1       106 6.00000E+03 1.00000E+03 1.00000E+03
 -1       107 6.80000E+03 1.00000E+03 1.00000E+03
 -1       108 7.60000E+03 1.00000E+03 1.00000E+03
 -1       109 0.00000E+00 5.00000E+02 5.00000E+02
 -1       110 0.00000E+00 2.50000E+02 7.50000E+02
 -1       111 0.00000E+00 7.50000E+02 2.50000E+02
 -1       112 0.00000E+00 7.50000E+02 7.50000E+02
 -1       113 0.00000E+00 2.50000E+02 2.50000E+02
 -1       114 0.00000E+00 1.25000E+02 6.25000E+02
 -1       115 0.00000E+00 1.25000E+02 8.75000E+02
 -1       116 0.00000E+00 3.75000E+02 8.75000E+02
 -1       117 0.00000E+00 1.25000E+02 3.75000E+02
 -1       118 0.00000E+00 1.25000E+02 1.25000E+02
 -1       119 0.00000E+00 3.75000E+02 1.25000E+02
 -1       120 0.00000E+00 6.25000E+02 8.75000E+02
 -1       121 0.00000E+00 8.75000E+02 8.75000E+02
 -1       122 0.00000E+00 8.75000E+02 6.25000E+02
 -1       123 0.00000E+00 8.75000E+02 3.75000E+02
 -1       124 0.00000E+00 8.75000E+02 1.25000E+02
 -1       125 0.00000E+00 6.25000E+02 1.25000E+02
 -1       126 0.00000E+00 3.75000E+02 6.25000E+02
 -1       127 0.00000E+00 2.50000E+02 5.00000E+02
 -1       128 0.00000E+00 3.75000E+02 3.75000E+02
 -1       129 0.00000E+00 5.00000E+02 7.50000E+02
 -1       130 0.00000E+00 6.25000E+02 6.25000E+02
 -1       131 0.00000E+00 6.25000E+02 3.75000E+02
 -1       132 0.00000E+00 7.50000E+02 5.00000E+02
 -1       133 0.00000E+00 5.00000E+02 2.50000E+02
 -1       134 8.00000E+03 5.00000E+02 5.00000E+02
 -1       135 8.00000E+03 2.50000E+02 7.50000E+02
 -1       136 8.00000E+03 7.50000E+02 2.50000E+02
 -1       137 8.00000E+03 7.50000E+02 7.50000E+02
 -1       138 8.00000E+03 2.50000E+02 2.50000E+02
 -1       139 8.00000E+03 1.25000E+02 6.25000E+02
 -1       140 8.00000E+03 1.25000E+02 8.75000E+02
 -1       141 8.00000E+03 3.75000E+02 8.75000E+02
 -1       142 8.00000E+03 1.25000E+02 1.25000E+02
 -1       143 8.00000E+03 1.25000E+02 3.75000E+02
 -1       144 8.00000E+03 3.75000E+02 1.25000E+02
 -1       145 8.00000E+03 6.25000E+02 8.75000E+02
 -1       146 8.00000E+03 8.75000E+02 8.75000E+02
 -1       147 8.00000E+03 8.75000E+02 6.25000E+02
 -1       148 8.00000E+03 8.75000E+02 3.75000E+02
 -1       149 8.00000E+03 8.75000E+02 1.25000E+02
 -1       150 8.00000E+03 6.25000E+02 1.25000E+02
 -1       151 8.00000E+03 2.50000E+02 5.00000E+02
 -1       152 8.00000E+03 3.75000E+02 6.25000E+02
 -1       153 8.00000E+03 3.75000E+02 3.75000E+02
 -1       154 8.00000E+03 5.00000E+02 7.50000E+02
 -1       155 8.00000E+03 6.25000E+02 6.25000E+02
 -1       156 8.00000E+03 7.50000E+02 5.00000E+02
 -1       157 8.00000E+03 6.25000E+02 3.75000E+02
 -1       158 8.00000E+03 5.00000E+02 2.50000E+02
 -1       159 6.00000E+03 0.00000E+00 5.00000E+02
 -1       160 6.80000E+03 0.00000E+00 5.00000E+02
 -1       161 3.60000E+03 0.00000E+00 5.00000E+02
 -1       162 5.20000E+03 0.00000E+00 5.00000E+02
 -1       163 2.00000E+03 0.00000E+00 5.00000E+02
 -1       164 4.40000E+03 0.00000E+00 5.00000E+02
 -1       165 1.20000E+03 0.00000E+00 5.00000E+02
 -1       166 2.80000E+03 0.00000E+00 5.00000E+02
 -1       167 7.50774E+03 0.00000E+00 5.00000E+02
 -1       168 4.92262E+02 0.00000E+00 5.00000E+02
 -1       169 2.46131E+02 0.00000E+00 5.00000E+02
 -1       170 2.46131E+02 0.00000E+00 7.50000E+02
 -1       171 6.46131E+02 0.00000E+00 7.50000E+02
 -1       172 2.46131E+02 0.00000E+00 2.50000E+02
 -1       173 6.46131E+02 0.00000E+00 2.50000E+02
 -1       174 7.75387E+03 0.00000E+00 5.00000E+02
 -1       175 7.75387E+03 0.00000E+00 7.50000E+02
 -1       176 7.35387E+03 0.00000E+00 7.50000E+02
 -1       177 7.75387E+03 0.00000E+00 2.50000E+02
 -1       178 7.35387E+03 0.00000E+00 2.50000E+02
 -1       179 1.40000E+03 0.00000E+00 2.50000E+02
 -1       180 1.00000E+03 0.00000E+00 2.50000E+02
 -1       181 8.46131E+02 0.00000E+00 5.00000E+02
 -1       182 2.20000E+03 0.00000E+00 2.50000E+02
 -1       183 1.80000E+03 0.00000E+00 2.50000E+02
 -1       184 1.60000E+03 0.00000E+00 5.00000E+02
 -1       185 3.00000E+03 0.00000E+00 2.50000E+02
 -1       186 2.60000E+03 0.00000E+00 2.50000E+02
 -1       187 2.40000E+03 0.00000E+00 5.00000E+02
 -1       188 3.80000E+03 0.00000E+00 2.50000E+02
 -1       189 3.40000E+03 0.00000E+00 2.50000E+02
 -1       190 3.20000E+03 0.00000E+00 5.00000E+02
 -1       191 4.60000E+03 0.00000E+00 2.50000E+02
 -1       192 4.20000E+03 0.00000E+00 2.50000E+02
 -1       193 4.00000E+03 0.00000E+00 5.00000E+02
 -1       194 5.40000E+03 0.00000E+00 2.50000E+02
 -1       195 5.00000E+03 0.00000E+00 2.50000E+02
 -1       196 4.80000E+03 0.00000E+00 5.00000E+02
 -1       197 6.20000E+03 0.00000E+00 2.50000E+02
 -1       198 5.80000E+03 0.00000E+00 2.50000E+02
 -1       199 5.60000E+03 0.00000E+00 5.00000E+02
 -1       200 7.00000E+03 0.00000E+00 2.50000E+02
 -1       201 6.60000E+03 0.00000E+00 2.50000E+02
 -1       202 6.40000E+03 0.00000E+00 5.00000E+02
 -1       203 7.15387E+03 0.00000E+00 5.00000E+02
 -1       204 1.40000E+03 0.00000E+00 7.50000E+02
 -1       205 1.00000E+03 0.00000E+00 7.50000E+02
 -1       206 2.20000E+03 0.00000E+00 7.50000E+02
 -1       207 1.80000E+03 0.00000E+00 7.50000E+02
 -1       208 3.00000E+03 0.00000E+00 7.50000E+02
 -1       209 2.60000E+03 0.00000E+00 7.50000E+02
 -1       210 3.80000E+03 0.00000E+00 7.50000E+02
 -1       211 3.40000E+03 0.00000E+00 7.50000E+02
 -1       212 4.60000E+03 0.00000E+00 7.50000E+02
 -1       213 4.20000E+03 0.00000E+00 7.50000E+02
 -1       214 5.40000E+03 0.00000E+00 7.50000E+02
 -1       215 5.00000E+03 0.00000E+00 7.50000E+02
 -1       216 6.20000E+03 0.00000E+00 7.50000E+02
 -1       217 5.80000E+03 0.00000E+00 7.50000E+02
 -1       218 7.00000E+03 0.00000E+00 7.50000E+02
 -1       219 6.60000E+03 0.00000E+00 7.50000E+02
 -1       220 6.00000E+03 1.00000E+03 5.00000E+02
 -1       221 6.80000E+03 1.00000E+03 5.00000E+02
 -1       222 3.60000E+03 1.00000E+03 5.00000E+02
 -1       223 5.20000E+03 1.00000E+03 5.00000E+02
 -1       224 2.00000E+03 1.00000E+03 5.00000E+02
 -1       225 4.40000E+03 1.00000E+03 5.00000E+02
 -1       226 1.20000E+03 1.00000E+03 5.00000E+02
 -1       227 2.80000E+03 1.00000E+03 5.00000E+02
 -1       228 7.50774E+03 1.00000E+03 5.00000E+02
 -1       229 4.92262E+02 1.00000E+03 5.00000E+02
 -1       230 2.46131E+02 1.00000E+03 7.50000E+02
 -1       231 2.46131E+02 1.00000E+03 5.00000E+02
 -1       232 6.46131E+02 1.00000E+03 7.50000E+02
 -1       233 2.46131E+02 1.00000E+03 2.50000E+02
 -1       234 6.46131E+02 1.00000E+03 2.50000E+02
 -1       235 7.75387E+03 1.00000E+03 5.00000E+02
 -1       236 7.75387E+03 1.00000E+03 7.50000E+02
 -1       237 7.35387E+03 1.00000E+03 7.50000E+02
 -1       238 7.75387E+03 1.00000E+03 2.50000E+02
 -1       239 7.35387E+03 1.00000E+03 2.50000E+02
 -1       240 1.00000E+03 1.00000E+03 2.50000E+02
 -1       241 1.40000E+03 1.00000E+03 2.50000E+02
 -1       242 8.46131E+02 1.00000E+03 5.00000E+02
 -1       243 1.80000E+03 1.00000E+03 2.50000E+02
 -1       244 2.20000E+03 1.00000E+03 2.50000E+02
 -1       245 1.60000E+03 1.00000E+03 5.00000E+02
 -1       246 2.60000E+03 1.00000E+03 2.50000E+02
 -1       247 3.00000E+03 1.00000E+03 2.50000E+02
 -1       248 2.40000E+03 1.00000E+03 5.00000E+02
 -1       249 3.40000E+03 1.00000E+03 2.50000E+02
 -1       250 3.80000E+03 1.00000E+03 2.50000E+02
 -1       251 3.20000E+03 1.00000E+03 5.00000E+02
 -1       252 4.20000E+03 1.00000E+03 2.50000E+02
 -1       253 4.60000E+03 1.00000E+03 2.50000E+02
 -1       254 4.00000E+03 1.00000E+03 5.00000E+02
 -1       255 5.00000E+03 1.00000E+03 2.50000E+02
 -1       256 5.40000E+03 1.00000E+03 2.50000E+02
 -1       257 4.80000E+03 1.00000E+03 5.00000E+02
 -1       258 5.80000E+03 1.00000E+03 2.50000E+02
 -1       259 6.20000E+03 1.00000E+03 2.50000E+02
 -1       260 5.60000E+03 1.00000E+03 5.00000E+02
 -1       261 6.60000E+03 1.00000E+03 2.50000E+02
 -1       262 7.00000E+03 1.00000E+03 2.50000E+02
 -1       263 6.40000E+03 1.00000E+03 5.00000E+02
 -1       264 7.15387E+03 1.00000E+03 5.00000E+02
 -1       265 1.40000E+03 1.00000E+03 7.50000E+02
 -1       266 1.00000E+03 1.00000E+03 7.50000E+02
 -1       267 2.20000E+03 1.00000E+03 7.50000E+02
 -1       268 1.80000E+03 1.00000E+03 7.50000E+02
 -1       269 3.00000E+03 1.00000E+03 7.50000E+02
 -1       270 2.60000E+03 1.00000E+03 7.50000E+02
 -1       271 3.80000E+03 1.00000E+03 7.50000E+02
 -1       272 3.40000E+03 1.00000E+03 7.50000E+02
 -1       273 4.60000E+03 1.00000E+03 7.50000E+02
 -1       274 4.20000E+03 1.00000E+03 7.50000E+02
 -1       275 5.40000E+03 1.00000E+03 7.50000E+02
 -1       276 5.00000E+03 1.00000E+03 7.50000E+02
 -1       277 6.20000E+03 1.00000E+03 7.50000E+02
 -1       278 5.80000E+03 1.00000E+03 7.50000E+02
 -1       279 7.00000E+03 1.00000E+03 7.50000E+02
 -1       280 6.60000E+03 1.00000E+03 7.50000E+02
 -1       281 6.80000E+03 5.00000E+02 0.00000E+00
 -1       282 6.00000E+03 5.00000E+02 0.00000E+00
 -1       283 4.40000E+03 5.00000E+02 0.00000E+00
 -1       284 1.20000E+03 5.00000E+02 0.00000E+00
 -1       285 2.80000E+03 5.00000E+02 0.00000E+00
 -1       286 3.60000E+03 5.00000E+02 0.00000E+00
 -1       287 5.20000E+03 5.00000E+02 0.00000E+00
 -1       288 2.00000E+03 5.00000E+02 0.00000E+00
 -1       289 7.50774E+03 5.00000E+02 0.00000E+00
 -1       290 4.92262E+02 5.00000E+02 0.00000E+00
 -1       291 2.46131E+02 5.00000E+02 0.00000E+00
 -1       292 2.46131E+02 2.50000E+02 0.00000E+00
 -1       293 6.46131E+02 2.50000E+02 0.00000E+00
 -1       294 2.46131E+02 7.50000E+02 0.00000E+00
 -1       295 6.46131E+02 7.50000E+02 0.00000E+00
 -1       296 7.75387E+03 5.00000E+02 0.00000E+00
 -1       297 7.75387E+03 2.50000E+02 0.00000E+00
 -1       298 7.35387E+03 2.50000E+02 0.00000E+00
 -1       299 7.75387E+03 7.50000E+02 0.00000E+00
 -1       300 7.35387E+03 7.50000E+02 0.00000E+00
 -1       301 1.40000E+03 2.50000E+02 0.00000E+00
 -1       302 1.00000E+03 2.50000E+02 0.00000E+00
 -1       303 8.46131E+02 5.00000E+02 0.00000E+00
 -1       304 2.20000E+03 2.50000E+02 0.00000E+00
 -1       305 1.80000E+03 2.50000E+02 0.00000E+00
 -1       306 1.60000E+03 5.00000E+02 0.00000E+00
 -1       307 3.00000E+03 2.50000E+02 0.00000E+00
 -1       308 2.60000E+03 2.50000E+02 0.00000E+00
 -1       309 2.40000E+03 5.00000E+02 0.00000E+00
 -1       310 3.80000E+03 2.50000E+02 0.00000E+00
 -1       311 3.40000E+03 2.50000E+02 0.00000E+00
 -1       312 3.20000E+03 5.00000E+02 0.00000E+00
 -1       313 4.60000E+03 2.50000E+02 0.00000E+00
 -1       314 4.20000E+03 2.50000E+02 0.00000E+00
 -1       315 4.00000E+03 5.00000E+02 0.00000E+00
 -1       316 5.40000E+03 2.50000E+02 0.00000E+00
 -1       317 5.00000E+03 2.50000E+02 0.00000E+00
 -1       318 4.80000E+03 5.00000E+02 0.00000E+00
 -1       319 6.20000E+03 2.50000E+02 0.00000E+00
 -1       320 5.80000E+03 2.50000E+02 0.00000E+00
 -1       321 5.60000E+03 5.00000E+02 0.00000E+00
 -1       322 7.00000E+03 2.50000E+02 0.00000E+00
 -1       323 6.60000E+03 2.50000E+02 0.00000E+00
 -1       324 6.40000E+03 5.00000E+02 0.00000E+00
 -1       325 7.15387E+03 5.00000E+02 0.00000E+00
 -1       326 1.40000E+03 7.50000E+02 0.00000E+00
 -1       327 1.00000E+03 7.50000E+02 0.00000E+00
 -1       328 2.20000E+03 7.50000E+02 0.00000E+00
 -1       329 1.80000E+03 7.50000E+02 0.00000E+00
 -1       330 3.00000E+03 7.50000E+02 0.00000E+00
 -1       331 2.60000E+03 7.50000E+02 0.00000E+00
 -1       332 3.80000E+03 7.50000E+02 0.00000E+00
 -1       333 3.40000E+03 7.50000E+02 0.00000E+00
 -1       334 4.60000E+03 7.50000E+02 0.00000E+00
 -1       335 4.20000E+03 7.50000E+02 0.00000E+00
 -1       336 5.40000E+03 7.50000E+02 0.00000E+00
 -1       337 5.00000E+03 7.50000E+02 0.00000E+00
 -1       338 6.20000E+03 7.50000E+02 0.00000E+00
 -1       339 5.80000E+03 7.50000E+02 0.00000E+00
 -1       340 7.00000E+03 7.50000E+02 0.00000E+00
 -1       341 6.60000E+03 7.50000E+02 0.00000E+00
 -1       342 6.80000E+03 5.00000E+02 1.00000E+03
 -1       343 6.00000E+03 5.00000E+02 1.00000E+03
 -1       344 5.20000E+03 5.00000E+02 1.00000E+03
 -1       345 2.80000E+03 5.00000E+02 1.00000E+03
 -1       346 3.60000E+03 5.00000E+02 1.00000E+03
 -1       347 4.40000E+03 5.00000E+02 1.00000E+03
 -1       348 1.20000E+03 5.00000E+02 1.00000E+03
 -1       349 2.00000E+03 5.00000E+02 1.00000E+03
 -1       350 7.50774E+03 5.00000E+02 1.00000E+03
 -1       351 4.92262E+02 5.00000E+02 1.00000E+03
 -1       352 2.46131E+02 2.50000E+02 1.00000E+03
 -1       353 2.46131E+02 5.00000E+02 1.00000E+03
 -1       354 6.46131E+02 2.50000E+02 1.00000E+03
 -1       355 2.46131E+02 7.50000E+02 1.00000E+03
 -1       356 6.46131E+02 7.50000E+02 1.00000E+03
 -1       357 7.75387E+03 5.00000E+02 1.00000E+03
 -1       358 7.75387E+03 2.50000E+02 1.00000E+03
 -1       359 7.35387E+03 2.50000E+02 1.00000E+03
 -1       360 7.75387E+03 7.50000E+02 1.00000E+03
 -1       361 7.35387E+03 7.50000E+02 1.00000E+03
 -1       362 1.40000E+03 2.50000E+02 1.00000E+03
 -1       363 1.00000E+03 2.50000E+02 1.00000E+03
 -1       364 8.46131E+02 5.00000E+02 1.00000E+03
 -1       365 2.20000E+03 2.50000E+02 1.00000E+03
 -1       366 1.80000E+03 2.50000E+02 1.00000E+03
 -1       367 1.60000E+03 5.00000E+02 1.00000E+03
 -1       368 3.00000E+03 2.50000E+02 1.00000E+03
 -1       369 2.60000E+03 2.50000E+02 1.00000E+03
 -1       370 2.40000E+03 5.00000E+02 1.00000E+03
 -1       371 3.80000E+03 2.50000E+02 1.00000E+03
 -1       372 3.40000E+03 2.50000E+02 1.00000E+03
 -1       373 3.20000E+03 5.00000E+02 1.00000E+03
 -1       374 4.60000E+03 2.50000E+02 1.00000E+03
 -1       375 4.20000E+03 2.50000E+02 1.00000E+03
 -1       376 4.00000E+03 5.00000E+02 1.00000E+03
 -1       377 5.40000E+03 2.50000E+02 1.00000E+03
 -1       378 5.00000E+03 2.50000E+02 1.00000E+03
 -1       379 4.80000E+03 5.00000E+02 1.00000E+03
 -1       380 6.20000E+03 2.50000E+02 1.00000E+03
 -1       381 5.80000E+03 2.50000E+02 1.00000E+03
 -1       382 5.60000E+03 5.00000E+02 1.00000E+03
 -1       383 7.00000E+03 2.50000E+02 1.00000E+03
 -1       384 6.60000E+03 2.50000E+02 1.00000E+03
 -1       385 6.40000E+03 5.00000E+02 1.00000E+03
 -1       386 7.15387E+03 5.00000E+02 1.00000E+03
 -1       387 1.00000E+03 7.50000E+02 1.00000E+03
 -1       388 1.40000E+03 7.50000E+02 1.00000E+03
 -1       389 1.80000E+03 7.50000E+02 1.00000E+03
 -1       390 2.20000E+03 7.50000E+02 1.00000E+03
 -1       391 2.60000E+03 7.50000E+02 1.00000E+03
 -1       392 3.00000E+03 7.50000E+02 1.00000E+03
 -1       393 3.40000E+03 7.50000E+02 1.00000E+03
 -1       394 3.80000E+03 7.50000E+02 1.00000E+03
 -1       395 4.20000E+03 7.50000E+02 1.00000E+03
 -1       396 4.60000E+03 7.50000E+02 1.00000E+03
 -1       397 5.00000E+03 7.50000E+02 1.00000E+03
 -1       398 5.40000E+03 7.50000E+02 1.00000E+03
 -1       399 5.80000E+03 7.50000E+02 1.00000E+03
 -1       400 6.20000E+03 7.50000E+02 1.00000E+03
 -1       401 6.60000E+03 7.50000E+02 1.00000E+03
 -1       402 7.00000E+03 7.50000E+02 1.00000E+03
 -1       403 7.15387E+03 5.00000E+02 5.00000E+02
 -1       404 7.50774E+03 5.00000E+02 5.00000E+02
 -1       405 7.50774E+03 2.50000E+02 2.50000E+02
 -1       406 7.50774E+03 7.50000E+02 2.50000E+02
 -1       407 7.15387E+03 2.50000E+02 2.50000E+02
 -1       408 7.15387E+03 2.50000E+02 7.50000E+02
 -1       409 7.15387E+03 7.50000E+02 7.50000E+02
 -1       410 7.50774E+03 7.50000E+02 7.50000E+02
 -1       411 7.50774E+03 2.50000E+02 7.50000E+02
 -1       412 8.46131E+02 7.50000E+02 2.50000E+02
 -1       413 4.92262E+02 7.50000E+02 2.50000E+02
 -1       414 4.92262E+02 2.50000E+02 2.50000E+02
 -1       415 4.92262E+02 5.00000E+02 5.00000E+02
 -1       416 8.46131E+02 2.50000E+02 2.50000E+02
 -1       417 4.92262E+02 7.50000E+02 7.50000E+02
 -1       418 8.46131E+02 7.50000E+02 7.50000E+02
 -1       419 4.92262E+02 2.50000E+02 7.50000E+02
 -1       420 8.46131E+02 2.50000E+02 7.50000E+02
 -1       421 6.80000E+03 5.00000E+02 5.00000E+02
 -1       422 7.15387E+03 7.50000E+02 2.50000E+02
 -1       423 6.80000E+03 2.50000E+02 7.50000E+02
 -1       424 1.20000E+03 5.00000E+02 5.00000E+02
 -1       425 6.40000E+03 5.00000E+02 5.00000E+02
 -1       426 6.40000E+03 7.50000E+02 2.50000E+02
 -1       427 6.80000E+03 2.50000E+02 2.50000E+02
 -1       428 6.40000E+03 2.50000E+02 2.50000E+02
 -1       429 6.00000E+03 7.50000E+02 2.50000E+02
 -1       430 5.60000E+03 7.50000E+02 7.50000E+02
 -1       431 5.60000E+03 5.00000E+02 5.00000E+02
 -1       432 6.00000E+03 5.00000E+02 5.00000E+02
 -1       433 6.00000E+03 7.50000E+02 7.50000E+02
 -1       434 5.60000E+03 7.50000E+02 2.50000E+02
 -1       435 5.20000E+03 7.50000E+02 7.50000E+02
 -1       436 6.80000E+03 7.50000E+02 7.50000E+02
 -1       437 6.40000E+03 7.50000E+02 7.50000E+02
 -1       438 6.80000E+03 7.50000E+02 2.50000E+02
 -1       439 5.20000E+03 7.50000E+02 2.50000E+02
 -1       440 5.20000E+03 5.00000E+02 5.00000E+02
 -1       441 6.40000E+03 2.50000E+02 7.50000E+02
 -1       442 1.60000E+03 2.50000E+02 2.50000E+02
 -1       443 1.60000E+03 2.50000E+02 7.50000E+02
 -1       444 1.20000E+03 2.50000E+02 7.50000E+02
 -1       445 1.20000E+03 2.50000E+02 2.50000E+02
 -1       446 2.00000E+03 7.50000E+02 2.50000E+02
 -1       447 1.60000E+03 5.00000E+02 5.00000E+02
 -1       448 1.60000E+03 7.50000E+02 7.50000E+02
 -1       449 1.20000E+03 7.50000E+02 7.50000E+02
 -1       450 1.60000E+03 7.50000E+02 2.50000E+02
 -1       451 6.00000E+03 2.50000E+02 2.50000E+02
 -1       452 6.00000E+03 2.50000E+02 7.50000E+02
 -1       453 5.60000E+03 2.50000E+02 7.50000E+02
 -1       454 2.00000E+03 5.00000E+02 5.00000E+02
 -1       455 2.00000E+03 7.50000E+02 7.50000E+02
 -1       456 4.80000E+03 7.50000E+02 7.50000E+02
 -1       457 4.40000E+03 5.00000E+02 5.00000E+02
 -1       458 4.80000E+03 7.50000E+02 2.50000E+02
 -1       459 4.80000E+03 5.00000E+02 5.00000E+02
 -1       460 5.20000E+03 2.50000E+02 7.50000E+02
 -1       461 5.20000E+03 2.50000E+02 2.50000E+02
 -1       462 4.80000E+03 2.50000E+02 7.50000E+02
 -1       463 5.60000E+03 2.50000E+02 2.50000E+02
 -1       464 4.40000E+03 7.50000E+02 7.50000E+02
 -1       465 4.40000E+03 7.50000E+02 2.50000E+02
 -1       466 4.80000E+03 2.50000E+02 2.50000E+02
 -1       467 4.40000E+03 2.50000E+02 7.50000E+02
 -1       468 4.40000E+03 2.50000E+02 2.50000E+02
 -1       469 4.00000E+03 5.00000E+02 5.00000E+02
 -1       470 4.00000E+03 2.50000E+02 2.50000E+02
 -1       471 1.20000E+03 7.50000E+02 2.50000E+02
 -1       472 2.40000E+03 2.50000E+02 2.50000E+02
 -1       473 2.80000E+03 2.50000E+02 7.50000E+02
 -1       474 2.40000E+03 5.00000E+02 5.00000E+02
 -1       475 2.40000E+03 2.50000E+02 7.50000E+02
 -1       476 4.00000E+03 7.50000E+02 2.50000E+02
 -1       477 4.00000E+03 7.50000E+02 7.50000E+02
 -1       478 3.60000E+03 7.50000E+02 2.50000E+02
 -1       479 3.60000E+03 7.50000E+02 7.50000E+02
 -1       480 3.60000E+03 5.00000E+02 5.00000E+02
 -1       481 2.00000E+03 2.50000E+02 2.50000E+02
 -1       482 2.80000E+03 2.50000E+02 2.50000E+02
 -1       483 2.80000E+03 5.00000E+02 5.00000E+02
 -1       484 3.20000E+03 2.50000E+02 2.50000E+02
 -1       485 3.20000E+03 5.00000E+02 5.00000E+02
 -1       486 2.00000E+03 2.50000E+02 7.50000E+02
 -1       487 2.40000E+03 7.50000E+02 7.50000E+02
 -1       488 2.40000E+03 7.50000E+02 2.50000E+02
 -1       489 3.20000E+03 7.50000E+02 7.50000E+02
 -1       490 3.20000E+03 7.50000E+02 2.50000E+02
 -1       491 2.80000E+03 7.50000E+02 2.50000E+02
 -1       492 2.80000E+03 7.50000E+02 7.50000E+02
 -1       493 3.60000E+03 2.50000E+02 2.50000E+02
 -1       494 3.60000E+03 2.50000E+02 7.50000E+02
 -1       495 3.20000E+03 2.50000E+02 7.50000E+02
 -1       496 4.00000E+03 2.50000E+02 7.50000E+02
 -1       497 7.75387E+03 7.50000E+02 5.00000E+02
 -1       498 7.75387E+03 2.50000E+02 5.00000E+02
 -1       499 7.75387E+03 5.00000E+02 2.50000E+02
 -1       500 7.75387E+03 5.00000E+02 7.50000E+02
 -1       501 2.46131E+02 5.00000E+02 2.50000E+02
 -1       502 2.46131E+02 7.50000E+02 5.00000E+02
 -1       503 2.46131E+02 2.50000E+02 5.00000E+02
 -1       504 2.46131E+02 5.00000E+02 7.50000E+02
 -1       505 7.75387E+03 6.25000E+02 8.75000E+02
 -1       506 7.75387E+03 8.75000E+02 6.25000E+02
 -1       507 7.75387E+03 1.25000E+02 6.25000E+02
 -1       508 7.75387E+03 3.75000E+02 8.75000E+02
 -1       509 7.75387E+03 3.75000E+02 1.25000E+02
 -1       510 7.75387E+03 1.25000E+02 3.75000E+02
 -1       511 7.75387E+03 8.75000E+02 3.75000E+02
 -1       512 7.75387E+03 6.25000E+02 1.25000E+02
 -1       513 2.46131E+02 3.75000E+02 1.25000E+02
 -1       514 2.46131E+02 1.25000E+02 3.75000E+02
 -1       515 2.46131E+02 6.25000E+02 1.25000E+02
 -1       516 2.46131E+02 8.75000E+02 3.75000E+02
 -1       517 2.46131E+02 3.75000E+02 8.75000E+02
 -1       518 2.46131E+02 1.25000E+02 6.25000E+02
 -1       519 2.46131E+02 8.75000E+02 6.25000E+02
 -1       520 2.46131E+02 6.25000E+02 8.75000E+02
 -3
    3C                           217                                     1
 -1       257    6    0    1
 -2       228       167       160       289       404       203       403       406       405       407
 -1       258    6    0    1
 -2       228       342       167       350       409       408       404       410       386       411
 -1       259    6    0    1
 -2       229       290       284       168       413       303       412       415       414       416
 -1       260    6    0    1
 -2       348       351       229       168       364       417       418       420       419       415
 -1       261    6    0    1
 -2       228       160       221       289       403       421       264       406       407       422
 -1       262    6    0    1
 -2       228       167       342       160       404       408       409       403       203       423
 -1       263    6    0    1
 -2       348       229       284       168       418       412       424       420       415       416
 -1       264    6    0    1
 -2       281       160       220       282       427       425       426       324       428       429
 -1       265    6    0    1
 -2       344       282       220       343       431       429       430       382       432       433
 -1       266    6    0    1
 -2       344       282       223       220       431       434       435       430       429       260
 -1       267    6    0    1
 -2       221       160       342       220       421       423       436       263       425       437
 -1       268    6    0    1
 -2       220       221       160       281       263       421       425       426       438       427
 -1       269    6    0    1
 -2       344       223       282       287       435       434       431       440       439       321
 -1       270    6    0    1
 -2       342       160       343       220       423       441       385       437       425       433
 -1       271    6    0    1
 -2       220       160       343       282       425       441       433       429       428       432
 -1       272    6    0    1
 -2       163       348       284       165       443       424       442       184       444       445
 -1       273    6    0    1
 -2       348       224       288       226       448       446       447       449       245       450
 -1       274    6    0    1
 -2       282       160       343       159       428       441       432       451       202       452
 -1       275    6    0    1
 -2       343       344       282       159       382       431       432       452       453       451
 -1       276    6    0    1
 -2       348       349       288       224       367       454       447       448       455       446
 -1       277    6    0    1
 -2       283       223       347       287       458       456       457       318       439       459
 -1       278    6    0    1
 -2       223       344       347       287       435       379       456       439       440       459
 -1       279    6    0    1
 -2       287       344       347       162       440       379       459       461       460       462
 -1       280    6    0    1