    1C
    1UUSER                                                              
    1UDATE              07.february.2018                                
    1UTIME              13:19:11                                        
    1UHOST                                                              
    1UPGM               CalculiX                                        
    1UVERSION           Version 2.11                             
    1UCOMPILETIME       So 31. Jul 13:26:31 CEST 2016                    
    1UDIR                                                               
    1UDBN                                                               
    1UMAT    1MECHANICALMATERIAL                                        
    2C                           280                                     1
 -1         1 0.00000E+00 0.00000E+00 0.00000E+00
 -1         2 0.00000E+00 0.00000E+00 1.00000E+01
 -1         3 0.00000E+00 1.00000E+01 0.00000E+00
 -1         4 0.00000E+00 1.00000E+01 1.00000E+01
 -1         5 1.00000E+01 0.00000E+00 0.00000E+00
 -1         6 1.00000E+01 0.00000E+00 1.00000E+01
 -1         7 1.00000E+01 1.00000E+01 0.00000E+00
 -1         8 1.00000E+01 1.00000E+01 1.00000E+01
 -1         9 0.00000E+00 0.00000E+00 5.00000E+00
 -1        10 0.00000E+00 0.00000E+00 2.50000E+00
 -1        11 0.00000E+00 0.00000E+00 7.50000E+00
 -1        12 0.00000E+00 5.00000E+00 0.00000E+00
 -1        13 0.00000E+00 2.50000E+00 0.00000E+00
 -1        14 0.00000E+00 7.50000E+00 0.00000E+00
 -1        15 0.00000E+00 1.00000E+01 5.00000E+00
 -1        16 0.00000E+00 1.00000E+01 2.50000E+00
 -1        17 0.00000E+00 1.00000E+01 7.50000E+00
 -1        18 0.00000E+00 5.00000E+00 1.00000E+01
 -1        19 0.00000E+00 2.50000E+00 1.00000E+01
 -1        20 0.00000E+00 7.50000E+00 1.00000E+01
 -1        21 1.00000E+01 0.00000E+00 5.00000E+00
 -1        22 1.00000E+01 0.00000E+00 2.50000E+00
 -1        23 1.00000E+01 0.00000E+00 7.50000E+00
 -1        24 1.00000E+01 5.00000E+00 0.00000E+00
 -1        25 1.00000E+01 2.50000E+00 0.00000E+00
 -1        26 1.00000E+01 7.50000E+00 0.00000E+00
 -1        27 1.00000E+01 1.00000E+01 5.00000E+00
 -1        28 1.00000E+01 1.00000E+01 2.50000E+00
 -1        29 1.00000E+01 1.00000E+01 7.50000E+00
 -1        30 1.00000E+01 5.00000E+00 1.00000E+01
 -1        31 1.00000E+01 2.50000E+00 1.00000E+01
 -1        32 1.00000E+01 7.50000E+00 1.00000E+01
 -1        33 5.00000E+00 0.00000E+00 0.00000E+00
 -1        34 2.50000E+00 0.00000E+00 0.00000E+00
 -1        35 7.50000E+00 0.00000E+00 0.00000E+00
 -1        36 5.00000E+00 0.00000E+00 1.00000E+01
 -1        37 2.50000E+00 0.00000E+00 1.00000E+01
 -1        38 7.50000E+00 0.00000E+00 1.00000E+01
 -1        39 5.00000E+00 1.00000E+01 0.00000E+00
 -1        40 2.50000E+00 1.00000E+01 0.00000E+00
 -1        41 7.50000E+00 1.00000E+01 0.00000E+00
 -1        42 5.00000E+00 1.00000E+01 1.00000E+01
 -1        43 2.50000E+00 1.00000E+01 1.00000E+01
 -1        44 7.50000E+00 1.00000E+01 1.00000E+01
 -1        45 0.00000E+00 5.00000E+00 5.00000E+00
 -1        46 0.00000E+00 2.50000E+00 7.50000E+00
 -1        47 0.00000E+00 2.50000E+00 2.50000E+00
 -1        48 0.00000E+00 7.50000E+00 7.50000E+00
 -1        49 0.00000E+00 7.50000E+00 2.50000E+00
 -1        50 0.00000E+00 1.25000E+00 8.75000E+00
 -1        51 0.00000E+00 1.25000E+00 6.25000E+00
 -1        52 0.00000E+00 2.50000E+00 5.00000E+00
 -1        53 0.00000E+00 3.75000E+00 6.25000E+00
 -1        54 0.00000E+00 1.25000E+00 3.75000E+00
 -1        55 0.00000E+00 1.25000E+00 1.25000E+00
 -1        56 0.00000E+00 3.75000E+00 3.75000E+00
 -1        57 0.00000E+00 3.75000E+00 1.25000E+00
 -1        58 0.00000E+00 5.00000E+00 2.50000E+00
 -1        59 0.00000E+00 6.25000E+00 1.25000E+00
 -1        60 0.00000E+00 8.75000E+00 1.25000E+00
 -1        61 0.00000E+00 6.25000E+00 3.75000E+00
 -1        62 0.00000E+00 3.75000E+00 8.75000E+00
 -1        63 0.00000E+00 5.00000E+00 7.50000E+00
 -1        64 0.00000E+00 8.75000E+00 6.25000E+00
 -1        65 0.00000E+00 8.75000E+00 8.75000E+00
 -1        66 0.00000E+00 6.25000E+00 6.25000E+00
 -1        67 0.00000E+00 7.50000E+00 5.00000E+00
 -1        68 0.00000E+00 6.25000E+00 8.75000E+00
 -1        69 0.00000E+00 8.75000E+00 3.75000E+00
 -1        70 1.00000E+01 5.00000E+00 5.00000E+00
 -1        71 1.00000E+01 2.50000E+00 7.50000E+00
 -1        72 1.00000E+01 7.50000E+00 7.50000E+00
 -1        73 1.00000E+01 7.50000E+00 2.50000E+00
 -1        74 1.00000E+01 2.50000E+00 2.50000E+00
 -1        75 1.00000E+01 6.25000E+00 8.75000E+00
 -1        76 1.00000E+01 8.75000E+00 8.75000E+00
 -1        77 1.00000E+01 8.75000E+00 6.25000E+00
 -1        78 1.00000E+01 5.00000E+00 7.50000E+00
 -1        79 1.00000E+01 6.25000E+00 6.25000E+00
 -1        80 1.00000E+01 7.50000E+00 5.00000E+00
 -1        81 1.00000E+01 6.25000E+00 1.25000E+00
 -1        82 1.00000E+01 8.75000E+00 1.25000E+00
 -1        83 1.00000E+01 8.75000E+00 3.75000E+00
 -1        84 1.00000E+01 6.25000E+00 3.75000E+00
 -1        85 1.00000E+01 5.00000E+00 2.50000E+00
 -1        86 1.00000E+01 3.75000E+00 1.25000E+00
 -1        87 1.00000E+01 1.25000E+00 1.25000E+00
 -1        88 1.00000E+01 1.25000E+00 3.75000E+00
 -1        89 1.00000E+01 3.75000E+00 3.75000E+00
 -1        90 1.00000E+01 2.50000E+00 5.00000E+00
 -1        91 1.00000E+01 3.75000E+00 8.75000E+00
 -1        92 1.00000E+01 1.25000E+00 8.75000E+00
 -1        93 1.00000E+01 3.75000E+00 6.25000E+00
 -1        94 1.00000E+01 1.25000E+00 6.25000E+00
 -1        95 5.00000E+00 0.00000E+00 5.00000E+00
 -1        96 7.50000E+00 0.00000E+00 7.50000E+00
 -1        97 7.50000E+00 0.00000E+00 2.50000E+00
 -1        98 2.50000E+00 0.00000E+00 2.50000E+00
 -1        99 2.50000E+00 0.00000E+00 7.50000E+00
 -1       100 1.25000E+00 0.00000E+00 1.25000E+00
 -1       101 1.25000E+00 0.00000E+00 3.75000E+00
 -1       102 2.50000E+00 0.00000E+00 5.00000E+00
 -1       103 3.75000E+00 0.00000E+00 3.75000E+00
 -1       104 3.75000E+00 0.00000E+00 6.25000E+00
 -1       105 1.25000E+00 0.00000E+00 6.25000E+00
 -1       106 1.25000E+00 0.00000E+00 8.75000E+00
 -1       107 6.25000E+00 0.00000E+00 6.25000E+00
 -1       108 6.25000E+00 0.00000E+00 8.75000E+00
 -1       109 5.00000E+00 0.00000E+00 7.50000E+00
 -1       110 7.50000E+00 0.00000E+00 5.00000E+00
 -1       111 8.75000E+00 0.00000E+00 6.25000E+00
 -1       112 8.75000E+00 0.00000E+00 8.75000E+00
 -1       113 6.25000E+00 0.00000E+00 3.75000E+00
 -1       114 8.75000E+00 0.00000E+00 3.75000E+00
 -1       115 5.00000E+00 0.00000E+00 2.50000E+00
 -1       116 6.25000E+00 0.00000E+00 1.25000E+00
 -1       117 8.75000E+00 0.00000E+00 1.25000E+00
 -1       118 3.75000E+00 0.00000E+00 1.25000E+00
 -1       119 3.75000E+00 0.00000E+00 8.75000E+00
 -1       120 5.00000E+00 1.00000E+01 5.00000E+00
 -1       121 7.50000E+00 1.00000E+01 2.50000E+00
 -1       122 2.50000E+00 1.00000E+01 2.50000E+00
 -1       123 7.50000E+00 1.00000E+01 7.50000E+00
 -1       124 2.50000E+00 1.00000E+01 7.50000E+00
 -1       125 6.25000E+00 1.00000E+01 8.75000E+00
 -1       126 6.25000E+00 1.00000E+01 6.25000E+00
 -1       127 5.00000E+00 1.00000E+01 7.50000E+00
 -1       128 8.75000E+00 1.00000E+01 8.75000E+00
 -1       129 3.75000E+00 1.00000E+01 8.75000E+00
 -1       130 3.75000E+00 1.00000E+01 6.25000E+00
 -1       131 1.25000E+00 1.00000E+01 8.75000E+00
 -1       132 6.25000E+00 1.00000E+01 1.25000E+00
 -1       133 5.00000E+00 1.00000E+01 2.50000E+00
 -1       134 6.25000E+00 1.00000E+01 3.75000E+00
 -1       135 8.75000E+00 1.00000E+01 1.25000E+00
 -1       136 8.75000E+00 1.00000E+01 3.75000E+00
 -1       137 7.50000E+00 1.00000E+01 5.00000E+00
 -1       138 1.25000E+00 1.00000E+01 3.75000E+00
 -1       139 2.50000E+00 1.00000E+01 5.00000E+00
 -1       140 3.75000E+00 1.00000E+01 3.75000E+00
 -1       141 1.25000E+00 1.00000E+01 1.25000E+00
 -1       142 3.75000E+00 1.00000E+01 1.25000E+00
 -1       143 8.75000E+00 1.00000E+01 6.25000E+00
 -1       144 1.25000E+00 1.00000E+01 6.25000E+00
 -1       145 5.00000E+00 5.00000E+00 0.00000E+00
 -1       146 2.50000E+00 7.50000E+00 0.00000E+00
 -1       147 7.50000E+00 7.50000E+00 0.00000E+00
 -1       148 7.50000E+00 2.50000E+00 0.00000E+00
 -1       149 2.50000E+00 2.50000E+00 0.00000E+00
 -1       150 1.25000E+00 3.75000E+00 0.00000E+00
 -1       151 1.25000E+00 1.25000E+00 0.00000E+00
 -1       152 2.50000E+00 5.00000E+00 0.00000E+00
 -1       153 1.25000E+00 6.25000E+00 0.00000E+00
 -1       154 3.75000E+00 6.25000E+00 0.00000E+00
 -1       155 3.75000E+00 3.75000E+00 0.00000E+00
 -1       156 1.25000E+00 8.75000E+00 0.00000E+00
 -1       157 3.75000E+00 1.25000E+00 0.00000E+00
 -1       158 3.75000E+00 8.75000E+00 0.00000E+00
 -1       159 5.00000E+00 7.50000E+00 0.00000E+00
 -1       160 6.25000E+00 8.75000E+00 0.00000E+00
 -1       161 6.25000E+00 6.25000E+00 0.00000E+00
 -1       162 8.75000E+00 8.75000E+00 0.00000E+00
 -1       163 8.75000E+00 6.25000E+00 0.00000E+00
 -1       164 7.50000E+00 5.00000E+00 0.00000E+00
 -1       165 8.75000E+00 3.75000E+00 0.00000E+00
 -1       166 6.25000E+00 3.75000E+00 0.00000E+00
 -1       167 6.25000E+00 1.25000E+00 0.00000E+00
 -1       168 5.00000E+00 2.50000E+00 0.00000E+00
 -1       169 8.75000E+00 1.25000E+00 0.00000E+00
 -1       170 5.00000E+00 5.00000E+00 1.00000E+01
 -1       171 7.50000E+00 7.50000E+00 1.00000E+01
 -1       172 7.50000E+00 2.50000E+00 1.00000E+01
 -1       173 2.50000E+00 7.50000E+00 1.00000E+01
 -1       174 2.50000E+00 2.50000E+00 1.00000E+01
 -1       175 3.75000E+00 8.75000E+00 1.00000E+01
 -1       176 1.25000E+00 8.75000E+00 1.00000E+01
 -1       177 3.75000E+00 6.25000E+00 1.00000E+01
 -1       178 5.00000E+00 7.50000E+00 1.00000E+01
 -1       179 6.25000E+00 8.75000E+00 1.00000E+01
 -1       180 8.75000E+00 8.75000E+00 1.00000E+01
 -1       181 6.25000E+00 6.25000E+00 1.00000E+01
 -1       182 6.25000E+00 1.25000E+00 1.00000E+01
 -1       183 6.25000E+00 3.75000E+00 1.00000E+01
 -1       184 5.00000E+00 2.50000E+00 1.00000E+01
 -1       185 8.75000E+00 1.25000E+00 1.00000E+01
 -1       186 8.75000E+00 3.75000E+00 1.00000E+01
 -1       187 7.50000E+00 5.00000E+00 1.00000E+01
 -1       188 1.25000E+00 6.25000E+00 1.00000E+01
 -1       189 2.50000E+00 5.00000E+00 1.00000E+01
 -1       190 3.75000E+00 1.25000E+00 1.00000E+01
 -1       191 3.75000E+00 3.75000E+00 1.00000E+01
 -1       192 1.25000E+00 1.25000E+00 1.00000E+01
 -1       193 1.25000E+00 3.75000E+00 1.00000E+01
 -1       194 8.75000E+00 6.25000E+00 1.00000E+01
 -1       195 3.75000E+00 6.25000E+00 6.25000E+00
 -1       196 6.25000E+00 3.75000E+00 3.75000E+00
 -1       197 1.25000E+00 1.25000E+00 2.50000E+00
 -1       198 2.50000E+00 1.25000E+00 3.75000E+00
 -1       199 4.37500E+00 1.87500E+00 3.12500E+00
 -1       200 5.62500E+00 1.87500E+00 4.37500E+00
 -1       201 3.12500E+00 3.12500E+00 3.12500E+00
 -1       202 6.25000E+00 7.50000E+00 1.25000E+00
 -1       203 7.50000E+00 8.75000E+00 1.25000E+00
 -1       204 6.87500E+00 6.87500E+00 3.12500E+00
 -1       205 6.87500E+00 5.62500E+00 1.87500E+00
 -1       206 5.62500E+00 4.37500E+00 1.87500E+00
 -1       207 8.75000E+00 7.50000E+00 3.75000E+00
 -1       208 8.75000E+00 8.75000E+00 2.50000E+00
 -1       209 7.50000E+00 6.25000E+00 8.75000E+00
 -1       210 8.75000E+00 7.50000E+00 8.75000E+00
 -1       211 8.75000E+00 3.75000E+00 7.50000E+00
 -1       212 8.75000E+00 2.50000E+00 8.75000E+00
 -1       213 3.75000E+00 2.50000E+00 8.75000E+00
 -1       214 2.50000E+00 1.25000E+00 8.75000E+00
 -1       215 1.25000E+00 2.50000E+00 1.25000E+00
 -1       216 2.50000E+00 3.75000E+00 1.25000E+00
 -1       217 8.75000E+00 7.50000E+00 6.25000E+00
 -1       218 8.75000E+00 8.75000E+00 7.50000E+00
 -1       219 7.50000E+00 7.50000E+00 5.00000E+00
 -1       220 5.62500E+00 6.87500E+00 4.37500E+00
 -1       221 8.12500E+00 4.37500E+00 4.37500E+00
 -1       222 7.50000E+00 5.00000E+00 7.50000E+00
 -1       223 6.87500E+00 3.12500E+00 6.87500E+00
 -1       224 5.62500E+00 4.37500E+00 6.87500E+00
 -1       225 5.00000E+00 2.50000E+00 7.50000E+00
 -1       226 3.12500E+00 3.12500E+00 6.87500E+00
 -1       227 4.37500E+00 3.12500E+00 5.62500E+00
 -1       228 4.37500E+00 5.62500E+00 8.12500E+00
 -1       229 2.50000E+00 5.00000E+00 2.50000E+00
 -1       230 3.12500E+00 4.37500E+00 4.37500E+00
 -1       231 5.62500E+00 8.12500E+00 6.87500E+00
 -1       232 6.87500E+00 5.62500E+00 5.62500E+00
 -1       233 4.37500E+00 8.12500E+00 5.62500E+00
 -1       234 2.50000E+00 2.50000E+00 5.00000E+00
 -1       235 5.00000E+00 7.50000E+00 2.50000E+00
 -1       236 4.37500E+00 5.62500E+00 3.12500E+00
 -1       237 1.87500E+00 5.62500E+00 5.62500E+00
 -1       238 5.00000E+00 5.00000E+00 5.00000E+00
 -1       239 8.75000E+00 2.50000E+00 1.25000E+00
 -1       240 8.12500E+00 4.37500E+00 1.87500E+00
 -1       241 8.12500E+00 3.12500E+00 3.12500E+00
 -1       242 6.87500E+00 3.12500E+00 1.87500E+00
 -1       243 8.75000E+00 1.25000E+00 2.50000E+00
 -1       244 8.12500E+00 1.87500E+00 4.37500E+00
 -1       245 6.87500E+00 1.87500E+00 3.12500E+00
 -1       246 7.50000E+00 1.25000E+00 1.25000E+00
 -1       247 5.62500E+00 1.87500E+00 1.87500E+00
 -1       248 2.50000E+00 8.75000E+00 8.75000E+00
 -1       249 3.12500E+00 8.12500E+00 6.87500E+00
 -1       250 3.12500E+00 6.87500E+00 8.12500E+00
 -1       251 4.37500E+00 8.12500E+00 8.12500E+00
 -1       252 1.25000E+00 8.75000E+00 7.50000E+00
 -1       253 1.87500E+00 8.12500E+00 5.62500E+00
 -1       254 1.87500E+00 6.87500E+00 6.87500E+00
 -1       255 1.25000E+00 7.50000E+00 8.75000E+00
 -1       256 1.87500E+00 5.62500E+00 8.12500E+00
 -1       257 3.12500E+00 8.12500E+00 4.37500E+00
 -1       258 6.87500E+00 1.87500E+00 5.62500E+00
 -1       259 1.87500E+00 4.37500E+00 6.87500E+00
 -1       260 1.25000E+00 8.75000E+00 2.50000E+00
 -1       261 1.25000E+00 7.50000E+00 1.25000E+00
 -1       262 8.75000E+00 7.50000E+00 1.25000E+00
 -1       263 7.50000E+00 1.25000E+00 8.75000E+00
 -1       264 1.25000E+00 2.50000E+00 8.75000E+00
 -1       265 2.50000E+00 1.25000E+00 1.25000E+00
 -1       266 1.25000E+00 1.25000E+00 7.50000E+00
 -1       267 7.50000E+00 8.75000E+00 8.75000E+00
 -1       268 2.50000E+00 8.75000E+00 1.25000E+00
 -1       269 8.75000E+00 1.25000E+00 7.50000E+00
 -1       270 8.75000E+00 6.25000E+00 2.50000E+00
 -1       271 1.25000E+00 6.25000E+00 2.50000E+00
 -1       272 3.12500E+00 6.87500E+00 3.12500E+00
 -1       273 3.75000E+00 2.50000E+00 1.25000E+00
 -1       274 6.25000E+00 1.25000E+00 7.50000E+00
 -1       275 8.75000E+00 2.50000E+00 6.25000E+00
 -1       276 1.25000E+00 2.50000E+00 6.25000E+00
 -1       277 6.25000E+00 7.50000E+00 8.75000E+00
 -1       278 3.75000E+00 8.75000E+00 2.50000E+00
 -1       279 2.50000E+00 3.75000E+00 8.75000E+00
 -1       280 1.25000E+00 7.50000E+00 3.75000E+00
 -3
    3C                           129                                     1
 -1         1    6    0    1
 -2        95        98        47       196       103       197       198       200       199       201
 -1         2    6    0    1
 -2       147       121       145       196       203       202       161       205       204       206
 -1         3    6    0    1
 -2        73        70        27       121        84        80        83       208       207       136
 -1         4    6    0    1
 -2        72       170        30       171       209       187        75       210       181       194
 -1         5    6    0    1
 -2         9        98        47        95       101       197        54       102       103       198
 -1         6    6    0    1
 -2       172        70        30        71       211        78       186       212        93        91
 -1         7    6    0    1
 -2       170        99        36       174       213       119       184       191       214       190
 -1         8    6    0    1
 -2        12        47       149       145        57       215       150       152       216       155
 -1         9    6    0    1
 -2        70        27       123        72        80       143       217        79        77       218
 -1        10    6    0    1
 -2        39       147       121       145       160       203       132       159       161       202
 -1        11    6    0    1
 -2        70       120       121       196       219       134       207       221       220       204
 -1        12    6    0    1
 -2        70       172       170       196       211       183       222       221       223       224
 -1        13    6    0    1
 -2        95        99       170       195       104       213       225       227       226       228
 -1        14    6    0    1
 -2       145        45        47       196       229        56       216       206       230       201
 -1        15    6    0    1
 -2        70       123       120       195       217       126       219       232       231       233
 -1        16    6    0    1
 -2        47        45        95       196        56       234       198       201       230       200
 -1        17    6    0    1
 -2       121       120       145       196       134       235       202       204       220       206
 -1        18    6    0    1
 -2       145        39       120       121       159       133       235       202       132       134
 -1        19    6    0    1
 -2        70       120        27       121       219       137        80       207       134       136
 -1        20    6    0    1
 -2         9        47        45        95        54        56        52       102       198       234
 -1        21    6    0    1
 -2        70        27       120       123        80       137       219       217       143       126
 -1        22    6    0    1
 -2        45        47        12       145        56        57        58       229       216       152
 -1        23    6    0    1
 -2       170        95        36        99       225       109       184       213       104       119
 -1        24    6    0    1
 -2       195        45       145       196       237       229       236       238       230       206
 -1        25    6    0    1
 -2        95        45       195       196       234       237       227       200       230       238
 -1        26    6    0    1
 -2       170        95       195       196       225       227       228       224       200       238
 -1        27    6    0    1
 -2        70       170       195       196       222       228       232       221       224       238
 -1        28    6    0    1
 -2       195       120        70       196       233       219       232       238       220       221
 -1        29    6    0    1
 -2       145       120       195       196       235       233       236       206       220       238
 -1        30    6    0    1
 -2        74        24       148       196        86       165       239       241       240       242
 -1        31    6    0    1
 -2        21        74        97       196        88       243       114       244       241       245
 -1        32    6    0    1
 -2       148        33        97       196       167       116       246       242       247       245
 -1        33    6    0    1
 -2       173       124        42       195       248       129       175       250       249       251
 -1        34    6    0    1
 -2        48        15       124       195        64       144       252       254       253       249
 -1        35    6    0    1
 -2        18        48       173       195        68       255       188       256       254       250
 -1        36    6    0    1
 -2        74        70        24       196        89        85        86       241       221       240
 -1        37    6    0    1
 -2       170        18       173       195       189       188       177       228       256       250
 -1        38    6    0    1
 -2        70        74        21       196        89        88        90       221       241       244
 -1        39    6    0    1
 -2       120       123        42       195       126       125       127       233       231       251
 -1        40    6    0    1
 -2       170       173        42       195       177       175       178       228       250       251
 -1        41    6    0    1
 -2        42       124       120       195       129       130       127       251       249       233
 -1        42    6    0    1
 -2        15       122       120       195       138       140       139       253       257       233
 -1        43    6    0    1
 -2       124        15       120       195       144       139       130       249       253       233
 -1        44    6    0    1
 -2        15        48        45       195        64        66        67       253       254       237
 -1        45    6    0    1
 -2        24       147       145       196       163       161       164       240       205       206
 -1        46    6    0    1
 -2        95        97        33       196       113       116       115       200       245       247
 -1        47    6    0    1
 -2        33        98        95       196       118       103       115       247       199       200
 -1        48    6    0    1
 -2        95        96        21       196       107       111       110       200       258       244
 -1        49    6    0    1
 -2        97        95        21       196       113       110       114       245       200       244
 -1        50    6    0    1
 -2       145        33       148       196       168       167       166       206       247       242
 -1        51    6    0    1
 -2        24       145       148       196       164       166       165       240       206       242
 -1        52    6    0    1
 -2        18        45        48       195        63        66        68       256       237       254
 -1        53    6    0    1
 -2        45        18        46       195        63        62        53       237       256       259
 -1        54    6    0    1
 -2        48       124       173       195       252       248       255       254       249       250
 -1        55    6    0    1
 -2       148        97        74       196       246       243       239       242       245       241
 -1        56    6    0    1
 -2        74        24         5       148        86        25        87       239       165       169
 -1        57    6    0    1
 -2         3        49       122        15        60       260       141        16        69       138
 -1        58    6    0    1
 -2       146        12        49         3       153        59       261       156        14        60
 -1        59    6    0    1
 -2        15       124         4        48       144       131        17        64       252        65
 -1        60    6    0    1
 -2       149         1        47        12       151        55       215       150        13        57
 -1        61    6    0    1
 -2       147         7        73        24       162        82       262       163        26        81
 -1        62    6    0    1
 -2        36       172         6        96       182       185        38       108       263       112
 -1        63    6    0    1
 -2        98        47         1         9       197        55       100       101        54        10
 -1        64    6    0    1
 -2         2       174        46        18       192       264        50        19       193        62
 -1        65    6    0    1
 -2         1       149        98        33       151       265       100        34       157       118
 -1        66    6    0    1
 -2        48       173         4        18       255       176        65        68       188        20
 -1        67    6    0    1
 -2        30        72       171         8        75       210       194        32        76       180
 -1        68    6    0    1
 -2        97        21         5        74       114        22       117       243        88        87
 -1        69    6    0    1
 -2         9        46         2        99        51        50        11       105       266       106
 -1        70    6    0    1
 -2         8       123       171        42       128       267       180        44       125       179
 -1        71    6    0    1
 -2        97         5        33       148       117        35       116       246       169       167
 -1        72    6    0    1
 -2        99       174         2        36       214       192       106       119       190        37
 -1        73    6    0    1
 -2       173       124         4        42       248       131       176       175       129        43
 -1        74    6    0    1
 -2         3       122       146        39       141       268       156        40       142       158
 -1        75    6    0    1
 -2         8        72       123        27        76       218       128        29        77       143
 -1        76    6    0    1
 -2        71       172         6        30       212       185        92        91       186        31
 -1        77    6    0    1
 -2       147       121         7        39       203       135       162       160       132        41
 -1        78    6    0    1
 -2        73       121        27         7       208       136        83        82       135        28
 -1        79    6    0    1
 -2        71         6        96        21        92       112       269        94        23       111
 -1        80    6    0    1
 -2       146        49       122         3       261       260       268       156        60       141
 -1        81    6    0    1
 -2         2        46       174        99        50       264       192       106       266       214
 -1        82    6    0    1
 -2       123       171        72         8       267       210       218       128       180        76
 -1        83    6    0    1
 -2         7        73       121       147        82       208       135       162       262       203
 -1        84    6    0    1
 -2       173         4       124        48       176       131       248       255        65       252
 -1        85    6    0    1
 -2        96       172         6        71       263       185       112       269       212        92
 -1        86    6    0    1
 -2        74         5        97       148        87       117       243       239       169       246
 -1        87    6    0    1
 -2         1        98       149        47       100       265       151        55       197       215
 -1        88    6    0    1
 -2       147       121        70        73       203       207       270       262       208        84
 -1        89    6    0    1
 -2       121       147        70       196       203       270       207       204       205       221
 -1        90    6    0    1
 -2       147        70        24        73       270        85       163       262        84        81
 -1        91    6    0    1
 -2        70       147        24       196       270       163        85       221       205       240
 -1        92    6    0    1
 -2       146       195        45       145       272       237       271       154       236       229
 -1        93    6    0    1
 -2        12        45       146        49        58       271       153        59        61       261
 -1        94    6    0    1
 -2       146        45        12       145       271        58       153       154       229       152
 -1        95    6    0    1
 -2        98        47       145       149       197       216       273       265       215       155
 -1        96    6    0    1
 -2       145        47        98       196       216       197       273       206       201       199
 -1        97    6    0    1
 -2        33        98       145       149       118       273       168       157       265       155
 -1        98    6    0    1
 -2       145        98        33       196       273       118       168       206       199       247
 -1        99    6    0    1
 -2        95       196       172        96       200       223       274       107       258       263
 -1       100    6    0    1
 -2       172       196        95       170       223       200       274       183       224       225
 -1       101    6    0    1
 -2        36        95       172        96       109       274       182       108       107       263
 -1       102    6    0    1
 -2       172        95        36       170       274       109       182       183       225       184
 -1       103    6    0    1
 -2        96        70       172        71       275       211       263       269        93       212
 -1       104    6    0    1
 -2       172        70        96       196       211       275       263       223       221       258
 -1       105    6    0    1
 -2        96        21        70        71       111        90       275       269        94        93
 -1       106    6    0    1
 -2        70        21        96       196        90       111       275       221       244       258
 -1       107    6    0    1
 -2        45       195        99        95       237       226       276       234       227       104
 -1       108    6    0    1
 -2        99       195        45        46       226       237       276       266       259        53
 -1       109    6    0    1
 -2         9        45        99        95        52       276       105       102       234       104
 -1       110    6    0    1
 -2        99        45         9        46       276        52       105       266        53        51
 -1       111    6    0    1
 -2       123       170        72       171       277       209       218       267       181       210
 -1       112    6    0    1
 -2        42       170       123       171       178       277       125       179       181       267
 -1       113    6    0    1
 -2       170        42       123       195       178       125       277       228       251       231
 -1       114    6    0    1