
 displacements (vx,vy,vz) for set NALL and time  0.1000000E+01

         1  0.000000E+00  0.000000E+00  0.000000E+00
         2  0.000000E+00  0.000000E+00  0.000000E+00
         3  0.000000E+00  0.000000E+00  0.000000E+00
         4  0.000000E+00  0.000000E+00  0.000000E+00
         5 -6.752272E-02 -7.580135E-03 -6.426068E-02
         6 -2.426168E-02 -1.094841E-02 -5.937254E-02
         7 -6.774831E-02  7.760631E-03 -6.431811E-02
         8 -2.430201E-02  1.107025E-02 -5.927356E-02
         9  0.000000E+00  0.000000E+00  0.000000E+00
        10  0.000000E+00  0.000000E+00  0.000000E+00
        11  0.000000E+00  0.000000E+00  0.000000E+00
        12  0.000000E+00  0.000000E+00  0.000000E+00
        13  0.000000E+00  0.000000E+00  0.000000E+00
        14  0.000000E+00  0.000000E+00  0.000000E+00
        15  0.000000E+00  0.000000E+00  0.000000E+00
        16  0.000000E+00  0.000000E+00  0.000000E+00
        17  0.000000E+00  0.000000E+00  0.000000E+00
        18  0.000000E+00  0.000000E+00  0.000000E+00
        19  0.000000E+00  0.000000E+00  0.000000E+00
        20  0.000000E+00  0.000000E+00  0.000000E+00
        21 -4.586309E-02 -9.173971E-03 -5.803483E-02
        22 -5.583972E-02 -8.184479E-03 -6.044498E-02
        23 -3.591561E-02 -1.026951E-02 -5.798624E-02
        24 -6.792666E-02  1.634331E-04 -6.385867E-02
        25 -6.795265E-02 -3.933632E-03 -6.389656E-02
        26 -6.806690E-02  4.116037E-03 -6.391435E-02
        27 -4.585953E-02  9.408880E-03 -5.795836E-02
        28 -5.594421E-02  8.400017E-03 -6.050484E-02
        29 -3.593292E-02  1.046864E-02 -5.790332E-02
        30 -2.272179E-02  1.121371E-04 -5.877082E-02
        31 -2.316188E-02 -5.534944E-03 -5.894126E-02
        32 -2.327971E-02  5.677174E-03 -5.883661E-02
        33 -4.162433E-02 -9.294249E-03 -3.609350E-02
        34 -2.568849E-02 -9.488271E-03 -1.980766E-02
        35 -5.517974E-02 -8.284132E-03 -5.125650E-02
        36 -4.322557E-03 -8.088026E-03 -3.143060E-02
        37  8.052963E-04 -4.754404E-03 -1.569799E-02
        38 -1.327678E-02 -9.914819E-03 -4.636171E-02
        39 -4.203452E-02  9.316475E-03 -3.592541E-02
        40 -2.577118E-02  9.473952E-03 -1.975002E-02
        41 -5.542257E-02  8.408026E-03 -5.122657E-02
        42 -4.321610E-03  8.405989E-03 -3.177214E-02
        43  8.243035E-04  4.862560E-03 -1.554962E-02
        44 -1.333875E-02  1.004440E-02 -4.638964E-02
        45  0.000000E+00  0.000000E+00  0.000000E+00
        46  0.000000E+00  0.000000E+00  0.000000E+00
        47  0.000000E+00  0.000000E+00  0.000000E+00
        48  0.000000E+00  0.000000E+00  0.000000E+00
        49  0.000000E+00  0.000000E+00  0.000000E+00
        50  0.000000E+00  0.000000E+00  0.000000E+00
        51  0.000000E+00  0.000000E+00  0.000000E+00
        52  0.000000E+00  0.000000E+00  0.000000E+00
        53  0.000000E+00  0.000000E+00  0.000000E+00
        54  0.000000E+00  0.000000E+00  0.000000E+00
        55  0.000000E+00  0.000000E+00  0.000000E+00
        56  0.000000E+00  0.000000E+00  0.000000E+00
        57  0.000000E+00  0.000000E+00  0.000000E+00
        58  0.000000E+00  0.000000E+00  0.000000E+00
        59  0.000000E+00  0.000000E+00  0.000000E+00
        60  0.000000E+00  0.000000E+00  0.000000E+00
        61  0.000000E+00  0.000000E+00  0.000000E+00
        62  0.000000E+00  0.000000E+00  0.000000E+00
        63  0.000000E+00  0.000000E+00  0.000000E+00
        64  0.000000E+00  0.000000E+00  0.000000E+00
        65  0.000000E+00  0.000000E+00  0.000000E+00
        66  0.000000E+00  0.000000E+00  0.000000E+00
        67  0.000000E+00  0.000000E+00  0.000000E+00
        68  0.000000E+00  0.000000E+00  0.000000E+00
        69  0.000000E+00  0.000000E+00  0.000000E+00
        70 -4.557382E-02 -2.756880E-05 -5.779365E-02
        71 -3.529229E-02 -5.146442E-03 -5.764390E-02
        72 -3.524086E-02  5.331636E-03 -5.765259E-02
        73 -5.597194E-02  4.397867E-03 -6.016066E-02
        74 -5.596873E-02 -4.229989E-03 -6.008962E-02
        75 -2.906447E-02  2.821053E-03 -5.811150E-02
        76 -2.988350E-02  8.156008E-03 -5.832332E-02
        77 -4.079113E-02  7.538421E-03 -5.743454E-02
        78 -3.491096E-02  2.163182E-05 -5.770956E-02
        79 -4.045282E-02  2.586029E-03 -5.747943E-02
        80 -4.563651E-02  4.799055E-03 -5.770294E-02
        81 -6.185712E-02  2.213243E-03 -6.196618E-02
        82 -6.179230E-02  6.166539E-03 -6.213920E-02
        83 -5.066752E-02  6.786412E-03 -5.873904E-02
        84 -5.052419E-02  2.327516E-03 -5.866278E-02
        85 -5.588307E-02  2.888812E-05 -6.023052E-02
        86 -6.172673E-02 -2.007646E-03 -6.194613E-02
        87 -6.166954E-02 -5.974380E-03 -6.208310E-02
        88 -5.072491E-02 -6.589220E-03 -5.870495E-02
        89 -5.065942E-02 -2.235062E-03 -5.866257E-02
        90 -4.569426E-02 -4.705354E-03 -5.772269E-02
        91 -2.905714E-02 -2.650651E-03 -5.816997E-02
        92 -2.985261E-02 -8.013359E-03 -5.838560E-02
        93 -4.054104E-02 -2.466025E-03 -5.741439E-02
        94 -4.085223E-02 -7.305205E-03 -5.746375E-02
        95 -2.312099E-02 -8.996801E-03 -2.970570E-02
        96 -2.520706E-02 -9.482473E-03 -4.524021E-02
        97 -4.320312E-02 -8.707198E-03 -4.778298E-02
        98 -1.574804E-02 -7.829883E-03 -1.501285E-02
        99 -8.039948E-03 -5.685063E-03 -1.314232E-02
       100 -9.529482E-03 -6.309569E-03 -7.401994E-03
       101 -6.847357E-03 -5.222296E-03 -6.110348E-03
       102 -1.116936E-02 -6.660682E-03 -1.323934E-02
       103 -1.990187E-02 -8.702593E-03 -2.222229E-02
       104 -1.499763E-02 -7.591843E-03 -2.101561E-02
       105 -4.996373E-03 -4.014030E-03 -5.798446E-03
       106 -3.021203E-03 -3.164469E-03 -5.941756E-03
       107 -2.474016E-02 -9.066830E-03 -3.758106E-02
       108 -1.493928E-02 -8.989435E-03 -3.831842E-02
       109 -1.598269E-02 -8.265376E-03 -2.964496E-02
       110 -3.432953E-02 -9.120304E-03 -4.549638E-02
       111 -3.542930E-02 -9.443834E-03 -5.188508E-02
       112 -2.490853E-02 -1.013936E-02 -5.251850E-02
       113 -3.231145E-02 -9.075257E-03 -3.884078E-02
       114 -4.456855E-02 -8.795732E-03 -5.315965E-02
       115 -3.014179E-02 -9.201199E-03 -3.209027E-02
       116 -4.217859E-02 -8.928675E-03 -4.202602E-02
       117 -5.514515E-02 -8.168534E-03 -5.621585E-02
       118 -2.783258E-02 -9.261104E-03 -2.587388E-02
       119 -7.273744E-03 -6.861418E-03 -2.229107E-02
       120 -2.286021E-02  8.843835E-03 -2.984231E-02
       121 -4.337252E-02  8.754667E-03 -4.768982E-02
       122 -1.576366E-02  8.387941E-03 -1.499459E-02
       123 -2.527282E-02  9.606327E-03 -4.522660E-02
       124 -8.393765E-03  6.004618E-03 -1.303779E-02
       125 -1.491587E-02  9.086412E-03 -3.845351E-02
       126 -2.471667E-02  9.131311E-03 -3.761695E-02
       127 -1.578322E-02  8.344465E-03 -2.974682E-02
       128 -2.494063E-02  1.029324E-02 -5.245643E-02
       129 -7.644976E-03  7.026514E-03 -2.227443E-02
       130 -1.500870E-02  7.904855E-03 -2.089885E-02
       131 -3.102254E-03  3.205476E-03 -5.846076E-03
       132 -4.232541E-02  8.938246E-03 -4.193041E-02
       133 -2.993731E-02  9.091626E-03 -3.211911E-02
       134 -3.241409E-02  8.948020E-03 -3.886103E-02
       135 -5.534302E-02  8.300052E-03 -5.621294E-02
       136 -4.461025E-02  8.953856E-03 -5.311482E-02
       137 -3.424332E-02  9.163661E-03 -4.556646E-02
       138 -6.780696E-03  5.157531E-03 -6.565409E-03
       139 -1.182658E-02  7.187823E-03 -1.325771E-02
       140 -1.981785E-02  8.899003E-03 -2.203690E-02
       141 -9.585676E-03  6.413863E-03 -7.394243E-03
       142 -2.784673E-02  9.635705E-03 -2.581572E-02
       143 -3.548040E-02  9.632837E-03 -5.186460E-02
       144 -5.543382E-03  4.117735E-03 -5.790467E-03
       145 -4.135900E-02  1.711352E-04 -3.724495E-02
       146 -2.340628E-02  3.927289E-03 -2.049761E-02
       147 -5.552323E-02  4.351036E-03 -5.120228E-02
       148 -5.545515E-02 -4.276711E-03 -5.116925E-02
       149 -2.432153E-02 -3.716556E-03 -2.023824E-02
       150 -1.276315E-02 -7.331309E-04 -1.188762E-02
       151 -1.304880E-02 -3.481263E-03 -1.139824E-02
       152 -2.153806E-02 -1.789673E-04 -1.995666E-02
       153 -1.188776E-02  1.348739E-03 -1.164136E-02
       154 -3.266247E-02  2.416010E-03 -2.898615E-02
       155 -3.318980E-02 -2.309273E-03 -2.887431E-02
       156 -1.285867E-02  3.456584E-03 -1.135939E-02
       157 -3.393490E-02 -7.532768E-03 -2.839784E-02
       158 -3.377893E-02  7.533843E-03 -2.841680E-02
       159 -4.172910E-02  4.936063E-03 -3.652301E-02
       160 -4.903321E-02  6.804439E-03 -4.396934E-02
       161 -4.871279E-02  2.343135E-03 -4.428510E-02
       162 -6.180108E-02  6.158357E-03 -5.782905E-02
       163 -6.178360E-02  2.186088E-03 -5.769686E-02
       164 -5.538700E-02  8.534656E-05 -5.111608E-02
       165 -6.172989E-02 -1.983567E-03 -5.772297E-02
       166 -4.867888E-02 -2.198729E-03 -4.415481E-02
       167 -4.880109E-02 -6.712202E-03 -4.398956E-02
       168 -4.139507E-02 -4.803728E-03 -3.681872E-02
       169 -6.164450E-02 -6.019849E-03 -5.780907E-02
       170 -2.470749E-03 -3.322811E-07 -3.169213E-02
       171 -1.226962E-02  4.964726E-03 -4.614501E-02
       172 -1.209775E-02 -4.901888E-03 -4.617145E-02
       173  2.967451E-03  2.264420E-03 -1.593582E-02
       174  2.918635E-03 -2.361836E-03 -1.565497E-02
       175  7.619420E-05  5.092814E-03 -2.372014E-02
       176  2.452600E-03  1.720775E-03 -8.062928E-03
       177  9.697691E-04  1.661441E-03 -2.359911E-02
       178 -2.758402E-03  4.221973E-03 -3.151094E-02
       179 -7.690576E-03  6.949403E-03 -3.912900E-02
       180 -1.819201E-02  7.939647E-03 -5.281708E-02
       181 -6.976430E-03  2.311944E-03 -3.913926E-02
       182 -7.623594E-03 -6.803919E-03 -3.900855E-02
       183 -6.924681E-03 -2.275366E-03 -3.905770E-02
       184 -2.878728E-03 -3.968826E-03 -3.154217E-02
       185 -1.810991E-02 -7.826827E-03 -5.287571E-02
       186 -1.726114E-02 -2.534398E-03 -5.257825E-02
       187 -1.199654E-02  9.668186E-05 -4.604252E-02
       188  2.691473E-03  6.030648E-04 -8.148806E-03
       189  1.871798E-03  2.304706E-04 -1.555123E-02
       190  5.435702E-05 -4.972673E-03 -2.347798E-02
       191  1.038271E-03 -1.682095E-03 -2.345388E-02
       192  2.423199E-03 -1.659725E-03 -8.195530E-03
       193  2.793920E-03 -5.684533E-04 -8.415349E-03
       194 -1.737909E-02  2.694161E-03 -5.256290E-02
       195 -1.335955E-02  1.822591E-03 -2.131314E-02
       196 -3.143134E-02 -2.122115E-03 -3.900170E-02
       197 -6.949186E-03 -3.480277E-03 -7.178872E-03
       198 -1.218201E-02 -5.094635E-03 -1.421353E-02
       199 -2.375810E-02 -5.648401E-03 -2.730120E-02
       200 -2.683592E-02 -5.746428E-03 -3.441741E-02
       201 -1.630183E-02 -2.791741E-03 -1.904068E-02
       202 -4.230890E-02  4.550661E-03 -4.211424E-02
       203 -4.908420E-02  6.531650E-03 -4.933585E-02
       204 -3.733823E-02  3.497971E-03 -4.328490E-02
       205 -4.266875E-02  1.237464E-03 -4.489814E-02
       206 -3.554763E-02 -1.020752E-03 -3.761683E-02
       207 -4.446858E-02  4.531666E-03 -5.288794E-02
       208 -4.972662E-02  6.532030E-03 -5.431949E-02
       209 -1.834114E-02  2.504971E-03 -4.542114E-02
       210 -2.395736E-02  5.224730E-03 -5.204507E-02
       211 -2.941746E-02 -2.439653E-03 -5.162051E-02
       212 -2.386534E-02 -5.088107E-03 -5.212331E-02
       213 -5.735642E-03 -3.207769E-03 -2.228293E-02
       214 -3.548720E-03 -3.691658E-03 -1.430647E-02
       215 -8.322121E-03 -2.267729E-03 -8.705954E-03
       216 -1.725587E-02 -1.706107E-03 -1.751400E-02
       217 -3.486077E-02  4.954243E-03 -5.155207E-02
       218 -3.007901E-02  7.573002E-03 -5.176259E-02
       219 -3.371001E-02  4.701097E-03 -4.527511E-02
       220 -2.645895E-02  3.447405E-03 -3.434871E-02
       221 -3.878031E-02 -1.069031E-03 -4.912135E-02
       222 -2.383072E-02  1.331913E-04 -4.494643E-02
       223 -2.408057E-02 -3.385740E-03 -4.131211E-02
       224 -1.855073E-02 -1.073701E-03 -3.364576E-02
       225 -1.429766E-02 -4.042751E-03 -2.973863E-02
       226 -9.415626E-03 -2.334669E-03 -1.735483E-02
       227 -1.718808E-02 -2.944823E-03 -2.556527E-02
       228 -9.637069E-03  9.215932E-04 -2.594348E-02
       229 -1.385842E-02 -1.121554E-04 -1.566141E-02
       230 -1.376539E-02 -1.058583E-03 -1.815483E-02
       231 -1.929958E-02  5.478187E-03 -3.371740E-02
       232 -2.829191E-02  1.299689E-03 -4.134291E-02
       233 -1.778717E-02  5.269843E-03 -2.556691E-02
       234 -1.016342E-02 -2.967862E-03 -1.389361E-02
       235 -2.966613E-02  4.631211E-03 -3.242030E-02
       236 -2.331180E-02  1.215171E-03 -2.740984E-02
       237 -6.769835E-03  5.399321E-04 -9.882040E-03
       238 -2.142437E-02  1.117207E-04 -2.992135E-02
       239 -5.544029E-02 -4.165684E-03 -5.591268E-02
       240 -4.923389E-02 -9.950339E-04 -5.184409E-02
       241 -4.380860E-02 -3.269863E-03 -5.031942E-02
       242 -4.259998E-02 -3.302217E-03 -4.497330E-02
       243 -4.970311E-02 -6.367556E-03 -5.430175E-02
       244 -3.917906E-02 -5.637878E-03 -4.915555E-02
       245 -3.747463E-02 -5.619486E-03 -4.328644E-02
       246 -4.893926E-02 -6.441357E-03 -4.932969E-02
       247 -3.567257E-02 -5.778416E-03 -3.720212E-02
       248 -3.513931E-03  3.790603E-03 -1.424628E-02
       249 -1.003250E-02  4.195642E-03 -1.719265E-02
       250 -6.310918E-03  2.222778E-03 -1.780275E-02
       251 -1.034635E-02  4.829637E-03 -2.609460E-02
       252 -3.150035E-03  2.174032E-03 -6.075396E-03
       253 -6.695105E-03  2.829153E-03 -9.639199E-03
       254 -5.338957E-03  1.509630E-03 -9.504992E-03
       255 -1.399674E-03  1.263043E-03 -6.252230E-03
       256 -3.513497E-03  3.461284E-04 -9.589225E-03
       257 -1.420323E-02  4.875917E-03 -1.781743E-02
       258 -2.894144E-02 -5.696817E-03 -4.152297E-02
       259 -5.109476E-03 -4.226429E-04 -9.816137E-03
       260 -6.872835E-03  3.382245E-03 -7.252467E-03
       261 -8.490232E-03  2.496447E-03 -8.382720E-03
       262 -5.556072E-02  4.278621E-03 -5.590779E-02
       263 -1.914740E-02 -7.240657E-03 -4.556340E-02
       264 -1.255476E-03 -1.098417E-03 -6.704441E-03
       265 -1.853339E-02 -6.125678E-03 -1.750529E-02
       266 -3.248085E-03 -2.194006E-03 -6.028067E-03
       267 -1.914127E-02  7.347149E-03 -4.557997E-02
       268 -1.847323E-02  6.316310E-03 -1.737483E-02
       269 -3.012491E-02 -7.390436E-03 -5.180492E-02
       270 -4.965807E-02  2.271018E-03 -5.420316E-02
       271 -6.448096E-03  7.812549E-04 -7.422326E-03
       272 -1.636037E-02  2.934862E-03 -1.904274E-02
       273 -2.654762E-02 -4.712051E-03 -2.612320E-02
       274 -1.971850E-02 -6.770684E-03 -3.773263E-02
       275 -3.501069E-02 -4.765371E-03 -5.158498E-02
       276 -3.870248E-03 -1.586936E-03 -6.242328E-03
       277 -1.379437E-02  4.589401E-03 -3.834469E-02
       278 -2.254512E-02  6.794460E-03 -2.382494E-02
       279 -2.803202E-03 -1.204286E-03 -1.421158E-02
       280 -5.323837E-03  1.887518E-03 -6.502636E-03

 stresses (elem, integ.pnt.,sxx,syy,szz,sxy,sxz,syz) for set EALL and time  0.1000000E+01

         1   1 -1.131106E+03 -1.475640E+01 -1.716119E+02 -3.356754E+00 -3.201676E+02  2.123477E+01
         1   2 -1.272700E+03 -4.700025E+01 -1.863858E+02 -2.818239E+01 -3.218780E+02  1.565725E+01
         1   3 -1.215777E+03 -1.645748E+02 -2.552338E+02 -8.258282E+01 -3.955694E+02 -3.612501E+01
         1   4 -1.139750E+03 -1.744790E+01 -1.186518E+02  8.213948E+00 -3.047313E+02  9.219177E+00
         2   1 -1.064251E+03  2.464857E+01 -3.489590E+00 -1.212144E+01 -4.415257E+01  2.893453E+00
         2   2 -1.078236E+03  6.667227E+00 -4.890232E+01 -1.354209E+01 -1.025876E+02  6.936501E+00
         2   3 -1.134918E+03  1.894293E+01  8.349178E+00 -9.702028E+00 -5.422622E+01  3.171922E+00
         2   4 -1.152443E+03 -1.391491E+01 -8.976932E+01 -1.228622E+00 -1.322456E+02  6.614992E+00
         3   1 -1.000399E+03  2.784924E+01 -6.217703E+01 -2.958685E+00 -1.995957E+01  8.886497E+00
         3   2 -9.859228E+02  3.724334E+01 -1.330477E+02  5.528663E+00 -3.687076E+01  7.929596E+00
         3   3 -1.011140E+03  9.101365E+00 -1.499278E+02 -2.829685E+00 -3.807960E+01  1.267756E+01
         3   4 -1.034405E+03  3.706216E+00 -9.989239E+01 -8.792680E+00 -7.790045E+01  7.583183E+00
         4   1 -9.873926E+02 -5.870207E-01 -3.835082E+02 -1.205384E+01 -2.345022E+01  3.329614E+00
         4   2 -9.094925E+02 -2.140100E+01 -3.886581E+02  1.008546E+01 -3.170834E+01 -7.064751E+00
         4   3 -9.916940E+02 -1.696732E+00 -3.962785E+02 -7.413369E+00 -2.427092E+00  6.996428E-01
         4   4 -9.708828E+02 -1.274078E+01 -3.928064E+02 -1.279324E+00 -1.255604E+01 -4.112860E+00
         5   1 -1.086793E+03 -8.980129E+01 -3.874089E+02 -1.493054E+02 -3.538936E+02  3.130829E+01
         5   2 -1.097195E+03  8.254382E+01 -1.447915E+02 -6.246081E+00 -3.718127E+02 -9.267568E+00
         5   3 -1.215507E+03 -2.683470E+02 -3.963796E+02 -1.284705E+02 -4.029682E+02  1.052634E+01
         5   4 -1.012950E+03  8.741839E+01 -1.319032E+02 -3.794271E+00 -3.604703E+02 -9.048294E+00
         6   1 -1.001486E+03 -1.692171E+00 -3.898881E+02  4.994861E+00 -1.922416E+01  5.968459E+00
         6   2 -9.896630E+02  6.244972E+00 -3.094125E+02  5.238639E+00 -2.295792E+01 -9.948289E+00
         6   3 -9.984529E+02  1.547976E+01 -3.912335E+02 -1.758034E+00 -1.346471E+00  5.884466E+00
         6   4 -9.933599E+02  4.518595E+00 -3.711215E+02  7.753052E+00 -8.428736E+00 -5.983493E+00
         7   1 -7.239581E+02 -4.669718E+01 -4.078063E+02 -7.316022E+00 -6.157234E+01 -1.835919E+01
         7   2 -5.970808E+02 -2.048645E+01 -3.722197E+02 -3.348229E+01 -2.082584E+02  2.040123E+01
         7   3 -7.094634E+02 -3.029316E+01 -4.035667E+02 -2.026980E+01 -5.105254E+01 -1.466361E+00
         7   4 -5.155095E+02 -2.314959E+01 -3.760706E+02 -2.796197E+01 -7.490388E+01 -5.692311E+00
         8   1 -1.877986E+03 -5.606767E+02 -2.509393E+02  4.489139E+01 -3.590995E+02  6.712982E+01
         8   2 -1.563706E+03 -3.972178E+02 -3.881588E+02 -1.237288E+02 -4.184675E+02  1.668049E+00
         8   3 -1.549553E+03 -1.226002E+02  1.406754E+02 -2.928526E+01 -6.864718E+01 -4.487527E+01
         8   4 -1.508776E+03 -1.030532E+02  1.125802E+02  4.553510E+01 -6.388175E+01 -1.549979E+01
         9   1 -1.026735E+03  8.543156E-01 -2.688035E+02 -5.525408E+00 -3.813177E+01  1.278709E+01
         9   2 -9.864280E+02  7.085103E+00 -2.366318E+02 -8.338629E-01 -3.874289E+01  1.615007E+01
         9   3 -9.617759E+02  1.810025E+00 -2.952697E+02 -6.493709E+00 -8.607419E+01  6.047484E+00
         9   4 -1.003563E+03 -1.238719E+00 -3.289493E+02 -2.667553E+00 -2.474460E+01  1.533088E+01
        10   1 -1.154767E+03 -9.045170E+00 -2.705554E+01 -2.871383E+01 -4.725331E+01  9.424542E+00
        10   2 -1.057486E+03  3.751767E+01  1.157861E+01 -2.367338E+01 -2.475305E+01  2.018321E+00
        10   3 -1.095785E+03  8.021228E+00 -3.086109E+01 -1.476163E+01 -8.627644E+01  2.750219E+00
        10   4 -1.136474E+03  3.232089E+01  8.254355E-01 -2.436429E+01 -4.326678E+01  6.322054E+00
        11   1 -1.034851E+03  8.469751E+00 -1.588574E+02 -7.212255E+00 -1.003047E+02  5.595690E+00
        11   2 -1.017626E+03 -2.274210E+00 -1.666949E+02 -1.543957E+01 -2.389884E+02  5.032304E-01
        11   3 -1.046024E+03  4.008229E+00 -9.919989E+01 -1.134557E+01 -1.421495E+02  7.528876E+00
        11   4 -1.073112E+03 -1.628075E+00 -1.369666E+02 -6.850823E+00 -1.685777E+02  5.267007E-01
        12   1 -9.787193E+02  2.237207E+01 -2.530475E+02  7.776346E+00 -8.406599E+01  1.168733E+01
        12   2 -9.352961E+02  1.288962E+00 -3.688657E+02  1.479504E+01 -7.023280E+01 -6.020841E+00
        12   3 -9.076165E+02 -1.803180E+01 -3.907829E+02  1.867339E+00 -1.144290E+02 -1.753069E+01
        12   4 -9.830302E+02  3.970447E+00 -2.206559E+02  5.410042E+00 -1.862475E+02  8.532685E+00
        13   1 -9.011558E+02 -3.634676E+00 -2.546733E+02 -6.061031E-01 -3.097744E+02  4.959317E+00
        13   2 -7.353500E+02 -2.612927E+01 -2.959269E+02 -1.578400E+01 -2.902534E+02  1.072764E+01
        13   3 -6.961732E+02 -1.671134E+01 -3.500910E+02 -9.492120E+00 -1.851719E+02  3.528761E+00
        13   4 -8.626297E+02 -5.770905E+01 -3.041668E+02 -9.727478E+00 -2.931627E+02  2.298750E+00
        14   1 -1.355421E+03 -6.182661E+01 -7.604358E+01 -1.557330E+01 -2.190535E+02  1.720068E+01
        14   2 -1.141927E+03 -2.779793E+02 -3.360592E+02  1.496421E+01 -3.941586E+02  4.964431E+00
        14   3 -1.298721E+03 -3.345032E+02 -3.182038E+02 -6.085088E+01 -3.760055E+02 -2.080820E+01
        14   4 -1.141324E+03 -3.591430E-01 -1.093911E+02  1.342948E+01 -2.835621E+02  1.348865E+01
        15   1 -1.010046E+03  2.559475E-01 -2.184694E+02 -1.400374E+01 -1.238192E+02  1.031244E+00
        15   2 -9.388173E+02  5.379885E+00 -2.891906E+02 -9.274252E+00 -1.633987E+02 -2.206973E+00
        15   3 -9.708573E+02  1.755348E+00 -2.329655E+02 -1.148503E+01 -2.513990E+02 -2.893885E+00
        15   4 -9.133047E+02  7.948642E-01 -2.455211E+02  1.902161E+00 -2.654858E+02 -6.321103E+00
        16   1 -1.184980E+03 -2.215665E+02 -3.071546E+02 -7.836699E+01 -3.883257E+02 -4.494708E+01
        16   2 -1.036133E+03 -2.251521E+02 -2.913939E+02 -3.991792E+01 -3.691128E+02 -1.387578E+01
        16   3 -1.057525E+03 -2.340230E+01 -2.023263E+02 -1.926015E+01 -3.417555E+02  3.756095E+01
        16   4 -1.089896E+03 -3.039380E+01 -1.630846E+02  1.102858E+00 -3.010719E+02  3.089255E+01
        17   1 -1.078356E+03 -1.859911E+00 -8.208116E+01 -1.580801E+01 -1.482404E+02  4.552624E+00
        17   2 -1.081610E+03 -1.296276E+01 -1.339920E+02 -2.032897E+01 -2.482929E+02 -2.899978E+00
        17   3 -1.176350E+03  3.042999E+00 -1.703373E+01 -1.102443E+01 -1.131521E+02  8.079126E+00
        17   4 -1.144729E+03 -1.807731E+01 -1.158336E+02 -3.815777E+00 -1.817226E+02  5.047938E+00
        18   1 -1.170234E+03  2.154364E+01 -1.273797E+00 -2.281730E+01 -1.007532E+02  7.267218E+00
        18   2 -1.145982E+03 -5.289872E+00 -2.325745E+01 -2.284405E+01 -1.144281E+02  6.046912E+00
        18   3 -1.143370E+03 -3.395954E+01 -1.405173E+02 -8.356350E+00 -2.510534E+02 -2.741796E+00
        18   4 -1.111239E+03 -7.219407E+00 -6.614312E+01 -1.063599E+01 -1.407873E+02  1.116720E+00
        19   1 -1.014051E+03  2.315659E+01 -1.521461E+02 -5.808828E+00 -8.139617E+01  1.346255E+01
        19   2 -9.967404E+02 -9.481069E+00 -1.914152E+02 -1.265441E+01 -2.234670E+02 -6.006208E+00
        19   3 -9.969515E+02  1.124394E+01 -1.572446E+02 -6.168305E+00 -9.342456E+01  1.021164E+01
        19   4 -1.031705E+03 -1.916346E+00 -1.216048E+02 -1.051754E+01 -1.280687E+02  3.503503E+00
        20   1 -1.120600E+03 -3.810944E+02 -4.218936E+02 -1.814195E+02 -3.732321E+02 -7.955105E-01
        20   2 -1.218141E+03 -4.228978E+02 -4.636969E+02 -1.383206E+02 -4.000426E+02 -7.955105E-01
        20   3 -1.023705E+03 -3.395681E+02 -3.803672E+02 -7.979002E+01 -3.912381E+02 -7.955105E-01
        20   4 -9.900838E+02 -4.261752E+00 -1.770897E+02 -3.471968E+01 -3.786201E+02 -3.369837E+00
        21   1 -1.010240E+03  6.964380E+00 -2.288290E+02 -5.658019E+00 -8.324036E+01  1.031483E+01
        21   2 -9.925339E+02 -4.341266E+00 -2.325111E+02 -6.017496E+00 -9.554244E+01  8.626797E+00
        21   3 -9.605039E+02  6.752600E+00 -1.924377E+02 -1.250360E+01 -2.277552E+02 -4.416065E+00
        21   4 -9.392549E+02  5.800655E+00 -2.683860E+02 -9.878705E+00 -1.325957E+02  3.228438E-01
        22   1 -1.170452E+03 -3.944749E+02 -3.745039E+02 -2.725149E+01 -3.915886E+02 -4.449978E+00
        22   2 -1.497704E+03 -5.347258E+02 -5.147548E+02 -7.111837E+01 -4.425734E+02 -4.449978E+00
        22   3 -1.910177E+03 -7.114999E+02 -6.915289E+02 -2.909021E+01 -5.097973E+02 -4.449978E+00
        22   4 -1.438623E+03 -1.626692E+02 -7.807077E+01 -3.887858E+01 -2.250117E+02 -1.885041E+01
        23   1 -6.493450E+02  1.133372E+01 -3.576796E+02 -9.949203E+00 -1.505819E+02 -4.324024E-01
        23   2 -8.897131E+02 -2.772171E+01 -3.081100E+02  1.191889E+01 -2.850245E+02  1.921158E+01
        23   3 -6.474567E+02  2.441549E+01 -3.519077E+02 -9.912836E+00 -1.378473E+02  3.470283E+00
        23   4 -6.873915E+02 -1.727154E+01 -3.398890E+02 -1.977345E+01 -2.607240E+02  2.198599E+01
        24   1 -1.031682E+03 -4.342557E+01 -2.274088E+02  4.343830E+01 -3.730530E+02 -1.721373E+00
        24   2 -1.045492E+03 -1.324563E+02 -2.689667E+02  3.954284E+01 -3.899029E+02  3.395582E+01
        24   3 -1.359904E+03 -6.301144E+01 -1.214525E+02 -3.456849E+01 -2.384012E+02 -2.054829E+01
        24   4 -1.155095E+03 -3.204898E+01 -1.635122E+02 -4.167950E+00 -3.007164E+02 -2.171176E+01
        25   1 -1.045667E+03 -5.422615E+01 -2.450818E+02 -1.580844E+01 -3.395223E+02 -3.979261E+00
        25   2 -9.422145E+02 -1.447186E+02 -1.868294E+02 -1.841597E+01 -3.513869E+02  1.847003E+01
        25   3 -9.728661E+02 -8.961785E+01 -2.595464E+02 -2.265089E+00 -3.467924E+02  1.243381E+01
        25   4 -1.120101E+03 -7.890576E+01 -2.743926E+02  4.287681E+00 -3.286148E+02  8.324878E+00
        26   1 -7.162411E+02  2.777778E+00 -3.139696E+02 -7.813680E+00 -1.881243E+02  3.720669E+00
        26   2 -1.029970E+03 -2.713422E+01 -2.632050E+02 -2.192606E+00 -3.061327E+02  3.651860E+00
        26   3 -9.019782E+02 -4.406140E+01 -2.713119E+02 -8.220724E+00 -3.010932E+02  4.934656E-01
        26   4 -1.124030E+03 -4.708256E+01 -2.571188E+02  2.025845E+00 -2.920710E+02  7.832920E-02
        27   1 -9.947797E+02  1.915509E+01 -2.356720E+02  2.314692E+01 -1.397326E+02  9.507473E+00
        27   2 -8.819591E+02 -1.957915E+01 -3.696628E+02 -4.329375E+01 -1.582410E+02 -4.295465E+00
        27   3 -9.425181E+02 -3.396602E+01 -2.797160E+02 -1.217471E+01 -2.804917E+02 -1.680447E+01
        27   4 -1.007522E+03  1.799400E+01 -2.019141E+02  4.047774E+01 -2.477947E+02  6.455208E+00
        28   1 -9.840519E+02 -3.665291E+01 -2.791114E+02 -3.845533E+00 -3.089435E+02 -1.068170E+01
        28   2 -1.014192E+03 -1.893298E+01 -2.334394E+02 -1.298253E+01 -2.737931E+02 -7.497080E+00
        28   3 -1.015995E+03  9.609401E+00 -1.604794E+02 -1.083933E+01 -1.258690E+02  2.084404E+00
        28   4 -1.037372E+03 -1.773195E+00 -1.452828E+02 -4.733284E+00 -2.227064E+02  4.788695E+00
        29   1 -1.222641E+03 -2.424649E+01 -5.052361E+01 -1.352082E+01 -1.860108E+02 -1.147813E+00
        29   2 -1.102454E+03 -3.010114E+01 -1.785891E+02 -1.135244E+01 -2.901079E+02 -5.996994E+00
        29   3 -1.144132E+03 -7.811742E+01 -2.534309E+02 -1.480224E-01 -3.454559E+02 -7.114203E+00
        29   4 -1.112536E+03 -2.064286E+01 -1.292022E+02 -7.532842E+00 -2.441555E+02  1.859128E+00
        30   1 -1.025764E+03  1.898415E+01 -3.774776E+01  1.814091E+00 -2.173167E+01 -1.305571E+01
        30   2 -1.017531E+03  2.864339E+01 -1.574838E+01  6.401577E+00 -9.260338E-01 -6.694945E+00
        30   3 -1.044170E+03  2.209089E+01 -2.537319E+01  1.686956E+01 -2.066687E+01  1.174876E-01
        30   4 -1.079929E+03  1.627317E+01 -7.611450E+01 -2.642827E+00 -9.923649E+01  3.760484E+00
        31   1 -1.007392E+03  5.998822E+00 -1.380201E+02 -5.502733E-01 -7.324513E+01 -6.716390E+00
        31   2 -1.012806E+03  1.490164E+01 -6.335654E+01  5.931824E+00 -4.884368E+01 -9.885104E+00
        31   3 -1.047307E+03  1.664423E+00 -9.693234E+01  9.257994E+00 -1.060656E+02 -4.970694E+00
        31   4 -1.066783E+03  9.481386E+00 -1.247797E+02  1.565838E+01 -1.372844E+02 -3.755980E+00
        32   1 -1.068370E+03  1.922851E+01 -1.676597E+01  1.927516E+01 -4.968510E+01 -4.829449E+00
        32   2 -1.142226E+03  1.257472E+00 -2.386191E+01  2.165679E+01 -8.754614E+01 -4.211250E+00
        32   3 -1.083711E+03  4.653637E+00 -5.479462E+01  1.553843E+01 -1.104103E+02 -4.902282E+00
        32   4 -1.148463E+03  8.214093E-01 -8.482954E+01  1.728227E+01 -1.465898E+02 -9.622595E+00
        33   1 -5.191468E+02 -3.542580E+01 -3.877713E+02  3.262863E+01 -1.429235E+02 -5.033589E+00
        33   2 -6.091121E+02  2.786690E+00 -3.209476E+02  1.617333E+01 -2.712092E+02 -2.033099E+01
        33   3 -6.402931E+02 -8.056899E+00 -3.805556E+02  3.301881E+00 -1.219288E+02 -3.616656E+00
        33   4 -7.308082E+02 -2.180771E+01 -3.058425E+02  2.968345E+01 -2.882549E+02 -1.446498E+01
        34   1 -6.868243E+02 -1.608596E+02 -2.528010E+02  9.064439E+01 -3.391754E+02 -5.812228E+00
        34   2 -9.044983E+02 -1.431523E+02 -2.806431E+02  1.133073E+02 -3.850394E+02  4.169163E+01
        34   3 -7.871533E+02 -2.405871E+01 -2.583511E+02  5.548327E+01 -3.271118E+02 -3.862430E+01
        34   4 -8.684263E+02 -7.071115E+01 -2.714690E+02  5.418128E+01 -3.561206E+02 -2.467509E+01
        35   1 -1.554998E+02 -3.622701E+01 -2.511866E+02  8.501158E+01 -2.712879E+02 -3.882002E+01
        35   2 -5.259848E+02 -1.538254E+02 -2.395838E+02  3.023894E+01 -3.225966E+02  1.813923E+01
        35   3 -2.912295E+02 -3.670898E+01 -3.658463E+02  2.052123E+01 -1.962328E+02  2.956699E+01
        35   4 -7.075322E+02 -7.709622E+01 -3.172392E+02 -2.621655E+00 -3.241517E+02  3.806766E-01
        36   1 -1.004438E+03  3.087768E+01 -3.280205E+01  1.053372E+00 -2.181586E+01 -1.071333E+01
        36   2 -1.007172E+03  2.971882E+01 -9.455422E+01  5.946565E+00 -4.451653E+01 -1.342735E+01
        36   3 -9.990283E+02  4.056527E+01 -3.615810E+00  2.434481E+00 -1.830422E+00 -1.758307E+00
        36   4 -1.062854E+03  1.293060E+01 -9.583933E+01 -6.308908E-01 -9.969283E+01 -3.660322E+00
        37   1 -5.749180E+02 -4.382256E+01 -4.059050E+02  2.337009E+01 -1.282594E+02  1.176534E+00
        37   2 -9.447955E+01 -2.195992E+01 -3.085140E+02  6.283310E+01 -2.254703E+02 -1.467418E+01
        37   3 -3.711213E+02 -2.987846E+01 -3.656344E+02  5.156106E+01 -1.315291E+02 -9.665131E+00
        37   4 -6.800928E+02 -4.628324E+01 -3.292277E+02 -9.751000E+00 -2.625996E+02 -7.916930E+00
        38   1 -1.011217E+03  1.969567E+01 -1.511304E+02  2.197406E+00 -5.265805E+01 -1.150032E+01
        38   2 -1.004900E+03  2.061389E+01 -7.719669E+01  4.340760E+00 -3.699393E+01 -1.117447E+01
        38   3 -9.870366E+02  9.921883E+00 -1.580004E+02  5.469331E+00 -5.523503E+01 -1.301353E+01