    1C
    1UUSER                                                              
    1UDATE              09.june.2017                                    
    1UTIME              11:49:27                                        
    1UHOST                                                              
    1UPGM               CalculiX                                        
    1UDIR                                                               
    1UDBN                                                               
    1UMAT    1FLUIDMATERIAL                                             
    2C                            25                                     1
 -1         2 0.00000E+00-1.11022E-14-5.00000E+01
 -1         3 0.00000E+00-9.54792E-13-4.30000E+03
 -1         4 4.95000E+03-9.54792E-13-4.30000E+03
 -1         5 5.00000E+03-9.54792E-13-4.30000E+03
 -1         6 8.53553E+03-1.73984E-12-7.83553E+03
 -1         7 8.56988E+03-1.74769E-12-7.87088E+03
 -1         8 1.21054E+04-2.53273E-12-1.14064E+04
 -1         9 1.21408E+04-2.54058E-12-1.14418E+04
 -1        10 1.39085E+04-2.93310E-12-1.32095E+04
 -1        11 1.39439E+04-2.94095E-12-1.32449E+04
 -1        12 1.50470E+04-3.18589E-12-1.43480E+04
 -1        13 1.50470E+04-1.76480E-12-7.94797E+03
 -1        15 0.00000E+00 0.00000E+00 0.00000E+00
 -1        16 0.00000E+00-4.82947E-13-2.17500E+03
 -1        17 2.47500E+03-9.54792E-13-4.30000E+03
 -1        18 4.97500E+03-9.54792E-13-4.30000E+03
 -1        19 6.76777E+03-1.34731E-12-6.06777E+03
 -1        20 8.55271E+03-1.74376E-12-7.85321E+03
 -1        21 1.03376E+04-2.14021E-12-9.63864E+03
 -1        22 1.21231E+04-2.53666E-12-1.14241E+04
 -1        23 1.30246E+04-2.73684E-12-1.23256E+04
 -1        24 1.39262E+04-2.93703E-12-1.32272E+04
 -1        25 1.44954E+04-3.06342E-12-1.37964E+04
 -1        26 1.50470E+04-2.47535E-12-1.11480E+04
 -1        27 1.50470E+04-1.75370E-12-7.89797E+03
 -3
    3C                            13                                     1
 -1         1   11    0    1
 -2        15         2
 -1         2   12    0    1
 -2         2         3        16
 -1         3   12    0    1
 -2         3         4        17
 -1         4   12    0    1
 -2         4         5        18
 -1         5   12    0    1
 -2         5         6        19
 -1         6   12    0    1
 -2         6         7        20
 -1         7   12    0    1
 -2         7         8        21
 -1         8   12    0    1
 -2         8         9        22
 -1         9   12    0    1
 -2         9        10        23
 -1        10   12    0    1
 -2        10        11        24
 -1        11   12    0    1
 -2        11        12        25
 -1        12   12    0    1
 -2        12        13        26
 -1        13   11    0    1
 -2        13        27
 -3
    1PSTEP                         1           1           1          
  100CL  101 1.000000000          25                     0    1           1
 -4  MAFLOW      1    1
 -5  MF          1    1    0    0
 -1         2 7.83805E-02
 -1         3 7.83805E-02
 -1         4 7.83805E-02
 -1         5 7.83805E-02
 -1         6 7.83805E-02
 -1         7 7.83805E-02
 -1         8 7.83805E-02
 -1         9 7.83805E-02
 -1        10 7.83805E-02
 -1        11 7.83805E-02
 -1        12 7.83805E-02
 -1        13 7.83805E-02
 -1        15 7.83805E-02
 -1        16 7.83805E-02
 -1        17 7.83805E-02
 -1        18 7.83805E-02
 -1        19 7.83805E-02
 -1        20 7.83805E-02
 -1        21 7.83805E-02
 -1        22 7.83805E-02
 -1        23 7.83805E-02
 -1        24 7.83805E-02
 -1        25 7.83805E-02
 -1        26 7.83805E-02
 -1        27 7.83805E-02
 -3
    1PSTEP                         2           1           1          
  100CL  101 1.000000000          25                     0    1           1
 -4  STPRES      1    1
 -5  PS          1    1    0    0
 -1         2 1.00000E-01
 -1         3 1.34842E-01
 -1         4 1.28265E-01
 -1         5 1.27953E-01
 -1         6 1.55924E-01
 -1         7 1.57802E-01
 -1         8 1.91652E-01
 -1         9 1.78963E-01
 -1        10 1.80863E-01
 -1        11 1.61473E-01
 -1        12 1.62658E-01
 -1        13 1.00000E-01
 -1        15 1.00000E-01
 -1        16 1.17421E-01
 -1        17 1.31553E-01
 -1        18 1.28109E-01
 -1        19 1.41939E-01
 -1        20 1.56863E-01
 -1        21 1.74727E-01
 -1        22 1.85308E-01
 -1        23 1.79913E-01
 -1        24 1.71168E-01
 -1        25 1.62066E-01
 -1        26 1.31329E-01
 -1        27 1.00000E-01
 -3
 9999
