# vtk DataFile Version 2.0
shape2mesh, Created by Gmsh 4.15.0-git-d85c0cc 
ASCII
DATASET UNSTRUCTURED_GRID
POINTS 183 double
30 0 10
30 0 0
30 10 10
30 10 0
16 10 0
16 10 10
10 4 0
4 10.0000000000001 0
10 16 0
10 16 10
4 10.0000000000001 10
10 4 10
10 30 10
10 30 0
0 30 0
0 30 10
0 0 0
0 0 10
30 0 4.999999999999988
30 4.999999999999988 10
30 10 4.999999999999988
30 4.999999999999988 0
19.50083632154386 10 0
24.33451699892099 10 0
19.50083632154386 10 10
24.33451699892099 10 10
16 9.999999999999998 2.499999999999999
16 9.999999999999998 4.99999999999999
16 9.999999999999998 7.499999999999988
13.00000000000001 4.803847577293372 0
15.19615242270664 7.00000000000002 0
4.803847577293364 7.000000000000006 0
6.999999999999997 4.80384757729337 0
7.000000000000022 15.19615242270664 0
4.803847577293379 13.00000000000002 0
10 16 2.499999999999999
10 16 4.99999999999999
10 16 7.499999999999988
7.000000000000022 15.19615242270664 10
4.803847577293379 13.00000000000002 10
4.803847577293364 7.000000000000006 10
6.999999999999997 4.80384757729337 10
13.00000000000001 4.803847577293372 10
15.19615242270664 7.00000000000002 10
10 19.50083632154386 10
10 24.33451699892099 10
10 30 4.999999999999988
10 19.50083632154386 0
10 24.33451699892099 0
4.999999999999988 30 0
4.999999999999988 30 10
0 30 4.999999999999988
0 0 4.999999999999988
0 6 10
0 12 10
0 18 10
0 24 10
0 6 0
0 12 0
0 18 0
0 24 0
6 0 0
12 0 0
18 0 0
24 0 0
6 0 10
12 0 10
18 0 10
24 0 10
30 5.000000000000001 5.000000000000001
30 7.499999999999996 2.499999999999997
30 2.499999999999994 2.499999999999994
30 2.499999999999994 7.499999999999993
30 7.499999999999996 7.499999999999996
21.48361606982577 10 4.932098741107787
18.66049677336893 10 3.749999999999995
25.61650258065437 10 5.955240471996834
18.75900628367756 10 6.854372484226576
26.76527766221137 10 2.849202485756235
20.96675864914187 10 2.297655409212441
18.22561834881093 10 1.709531081842487
17.56496065130536 10 8.58859312105664
21.92540952856044 10 7.866232296797504
23.83333439215087 10 3.20683942161466
13.91859289680446 5.45636382298124 2.680457870621005
10.88267348007393 4.065281175356817 2.524565789880047
13.31500715741062 4.998927360423928 5.033373686772961
11.09514187602159 4.100791216494883 5.171765858856052
12.19922708129588 4.417581147486801 7.375869419159498
14.32923551867957 5.845758814921401 7.402876155133204
5.200184795837766 13.60024638127629 4.777568374512723
4.441213646387101 12.25829455007247 2.625619453143738
5.861988687567341 14.34475112960217 2.596406880565353
4.20964991195549 11.57221050050015 5.090187996696574
8.305318433324196 15.75569755872989 2.485445309431322
6.998506570373591 15.19528990451057 4.983360487359336
15.75569755872989 8.305318433324187 7.514554690568665
15.19528990451057 6.99850657037358 5.016639512640656
4.17383793765476 8.566181453848131 5.245165104752296
4.015399471925233 9.570399581742276 2.905012093686191
4.073819018046622 10.93828512144982 7.538385913440397
8.336370002605925 4.23525063582374 4.778440817474063
9.570399581742251 4.015399471925234 7.09498790631381
5.491736625595021 13.95923747039738 7.340866573517485
8.210166328645244 15.72682245480727 7.551357616666305
15.72682245480727 8.210166328645238 2.448642383333686
5.317627036123508 6.248282602972543 7.551061386859271
5.757359312880709 5.757359312880721 4.999999999999999
4.552565494417665 7.484953816052091 2.578179218400356
6.242709452997856 5.322097933324349 2.483814003715454
7.462515360386044 4.562981358895002 7.451012571356316
8.307882713330827 4.243548046916803 1.83650075974651
4.243548046916797 8.307882713330848 8.16349924025349
10 21.48361606982577 4.932098741107788
10 18.66049677336893 3.749999999999995
10 25.61650258065436 5.955240471996833
10 18.75900628367755 6.854372484226575
10 26.76527766221136 2.849202485756239
10 20.96675864914188 2.297655409212443
10 18.22561834881094 1.709531081842488
10 17.56496065130535 8.58859312105664
10 21.92540952856044 7.866232296797499
10 23.83333439215087 3.206839421614661
5.000000000000001 30 5.000000000000001
2.499999999999997 30 7.499999999999996
2.499999999999994 30 2.499999999999994
7.499999999999992 30 2.499999999999994
7.499999999999996 30 7.499999999999996
0 9.249999999999998 5.116666666666665
0 20.75 5.116666666666665
0 15 5.038888888888888
0 25.5 5.699999999999999
0 4.499999999999999 5.699999999999998
0 27.33156948493682 2.563775510204077
0 2.668430515063172 2.563775510204076
15 0 5
9.25 0 5.116666666666666
20.75 0 5.116666666666666
25.5 0 5.699999999999999
4.5 0 5.699999999999999
27.33156948493682 0 2.563775510204077
2.668430515063173 0 2.563775510204077
4.241211532115797 20.34059573486348 10
20.34059573486349 4.241211532115789 10
3.971978225327623 3.971978225327629 10
24.98273003634703 5.105566483611722 10
5.105566483611724 24.98273003634703 10
4.34400300940194 16.37638801450809 10
16.37638801450809 4.344003009401932 10
18.22194152564242 7.195465681023109 10
7.195465681023117 18.22194152564241 10
21.80273691201062 7.514919505764498 10
7.514919505764499 21.80273691201062 10
2.555165160524199 7.794395645065531 10
7.794395645065524 2.555165160524201 10
27.32931175881701 7.526391620902928 10
7.526391620902928 27.329311758817 10
2.629570117339062 13.87527760290162 10
13.87527760290162 2.62957011733906 10
27.24568250908676 2.526391620902928 10
2.526391620902929 27.24568250908676 10
4.241211532115796 20.34059573486348 0
20.34059573486349 4.241211532115791 0
3.971978225327623 3.971978225327629 0
24.98273003634703 5.105566483611726 0
5.105566483611723 24.98273003634703 0
4.34400300940194 16.37638801450809 0
16.37638801450809 4.344003009401932 0
18.22194152564241 7.195465681023109 0
7.195465681023118 18.22194152564241 0
21.80273691201062 7.514919505764499 0
7.5149195057645 21.80273691201062 0
2.555165160524199 7.794395645065531 0
7.794395645065523 2.555165160524199 0
7.526391620902928 27.329311758817 0
27.32931175881701 7.526391620902928 0
2.629570117339066 13.87527760290162 0
13.87527760290162 2.629570117339062 0
27.24568250908676 2.526391620902929 0
2.526391620902928 27.24568250908676 0
5.690766224862525 19.6825338477102 5.271317423894176
19.6825338477102 5.693774453806119 5.271317423894176
4.026173480940091 16.82253558524869 4.203184389279548

CELLS 903 3953
1 0
1 1
1 2
1 3
1 4
1 5
1 6
1 7
1 8
1 9
1 10
1 11
1 12
1 13
1 14
1 15
1 16
1 17
2 1 18
2 18 0
2 0 19
2 19 2
2 3 20
2 20 2
2 1 21
2 21 3
2 4 22
2 22 23
2 23 3
2 5 24
2 24 25
2 25 2
2 4 26
2 26 27
2 27 28
2 28 5
2 6 29
2 29 30
2 30 4
2 7 31
2 31 32
2 32 6
2 8 33
2 33 34
2 34 7
2 8 35
2 35 36
2 36 37
2 37 9
2 9 38
2 38 39
2 39 10
2 10 40
2 40 41
2 41 11
2 11 42
2 42 43
2 43 5
2 9 44
2 44 45
2 45 12
2 13 46
2 46 12
2 8 47
2 47 48
2 48 13
2 14 49
2 49 13
2 15 50
2 50 12
2 14 51
2 51 15
2 16 52
2 52 17
2 17 53
2 53 54
2 54 55
2 55 56
2 56 15
2 16 57
2 57 58
2 58 59
2 59 60
2 60 14
2 16 61
2 61 62
2 62 63
2 63 64
2 64 1
2 17 65
2 65 66
2 66 67
2 67 68
2 68 0
3 18 72 0
3 0 72 19
3 1 71 18
3 21 71 1
3 19 73 2
3 2 73 20
3 20 70 3
3 3 70 21
3 71 72 18
3 19 72 69
3 69 73 19
3 69 70 20
3 20 73 69
3 21 70 69
3 69 71 21
3 69 72 71
3 20 76 2
3 2 76 25
3 3 78 20
3 23 78 3
3 4 80 22
3 26 80 4
3 24 81 5
3 5 81 28
3 20 78 76
3 22 79 23
3 22 80 79
3 23 83 78
3 79 83 23
3 25 82 24
3 77 81 24
3 24 82 77
3 76 82 25
3 27 75 26
3 75 80 26
3 28 77 27
3 27 77 75
3 28 81 77
3 75 77 74
3 74 79 75
3 74 82 76
3 76 83 74
3 77 82 74
3 74 83 79
3 79 80 75
3 78 83 76
3 26 4 105
3 105 4 30
3 96 5 28
3 43 5 96
3 85 29 6
3 111 6 32
3 6 111 85
3 108 31 7
3 91 7 34
3 7 91 99
3 99 108 7
3 33 8 94
3 94 8 35
3 37 9 104
3 104 9 38
3 100 39 10
3 112 10 40
3 10 112 100
3 110 41 11
3 88 11 42
3 11 88 102
3 102 110 11
3 27 26 105
3 96 28 27
3 27 97 96
3 105 97 27
3 84 30 29
3 29 85 84
3 30 84 105
3 109 32 31
3 108 109 31
3 109 111 32
3 92 34 33
3 94 92 33
3 92 91 34
3 94 35 36
3 36 37 104
3 36 95 94
3 104 95 36
3 103 38 39
3 38 103 104
3 39 100 103
3 106 40 41
3 106 112 40
3 110 106 41
3 89 42 43
3 89 88 42
3 96 89 43
3 84 85 86
3 97 84 86
3 84 97 105
3 85 87 86
3 85 101 87
3 85 111 101
3 86 87 88
3 86 88 89
3 86 89 97
3 102 88 87
3 87 101 102
3 96 97 89
3 90 91 92
3 90 93 91
3 90 92 95
3 93 90 103
3 95 103 90
3 99 91 93
3 94 95 92
3 93 98 99
3 100 98 93
3 103 100 93
3 103 95 104
3 108 99 98
3 100 112 98
3 106 107 98
3 112 106 98
3 98 107 108
3 110 102 101
3 109 107 101
3 101 107 110
3 111 109 101
3 106 110 107
3 109 108 107
3 8 119 35
3 47 119 8
3 37 120 9
3 9 120 44
3 45 115 12
3 12 115 46
3 46 117 13
3 13 117 48
3 35 114 36
3 35 119 114
3 36 116 37
3 114 116 36
3 116 120 37
3 44 121 45
3 44 120 116
3 116 121 44
3 45 121 115
3 115 117 46
3 48 118 47
3 118 119 47
3 117 122 48
3 48 122 118
3 113 116 114
3 114 118 113
3 115 121 113
3 113 122 115
3 113 121 116
3 118 122 113
3 114 119 118
3 115 122 117
3 46 127 12
3 12 127 50
3 13 126 46
3 49 126 13
3 14 125 49
3 51 125 14
3 50 124 15
3 15 124 51
3 46 126 123
3 123 127 46
3 125 126 49
3 123 124 50
3 50 127 123
3 51 124 123
3 123 125 51
3 123 126 125
3 51 14 133
3 14 60 133
3 15 51 131
3 56 15 131
3 16 52 134
3 57 16 134
3 52 17 132
3 17 53 132
3 131 51 133
3 52 132 134
3 53 54 128
3 53 128 132
3 54 55 130
3 128 54 130
3 55 56 129
3 55 129 130
3 129 56 131
3 58 57 128
3 128 57 132
3 132 57 134
3 59 58 130
3 58 128 130
3 60 59 129
3 129 59 130
3 60 129 131
3 60 131 133
3 0 138 18
3 68 138 0
3 18 140 1
3 1 140 64
3 16 141 52
3 61 141 16
3 52 139 17
3 17 139 65
3 138 140 18
3 52 141 139
3 62 136 61
3 136 139 61
3 139 141 61
3 63 135 62
3 135 136 62
3 64 137 63
3 63 137 135
3 64 138 137
3 64 140 138
3 65 136 66
3 65 139 136
3 66 135 67
3 66 136 135
3 67 137 68
3 135 137 67
3 137 138 68
3 19 159 0
3 0 159 68
3 2 155 19
3 25 155 2
3 5 149 24
3 43 149 5
3 9 150 38
3 44 150 9
3 39 157 10
3 10 153 40
3 54 153 10
3 10 157 54
3 41 154 11
3 11 158 42
3 11 154 66
3 66 158 11
3 12 156 45
3 50 156 12
3 15 160 50
3 56 160 15
3 17 144 53
3 65 144 17
3 19 155 145
3 145 159 19
3 24 151 25
3 149 151 24
3 25 151 145
3 145 155 25
3 38 147 39
3 38 150 147
3 147 157 39
3 40 144 41
3 40 153 144
3 144 154 41
3 42 148 43
3 42 158 148
3 148 149 43
3 45 152 44
3 44 152 150
3 146 152 45
3 45 156 146
3 146 156 50
3 50 160 146
3 53 153 54
3 144 153 53
3 54 157 55
3 55 142 56
3 55 147 142
3 55 157 147
3 142 146 56
3 146 160 56
3 66 154 65
3 65 154 144
3 67 158 66
3 68 143 67
3 143 148 67
3 148 158 67
3 68 145 143
3 68 159 145
3 142 152 146
3 147 150 142
3 150 152 142
3 145 151 143
3 143 149 148
3 143 151 149
3 1 178 21
3 64 178 1
3 21 175 3
3 3 175 23
3 22 168 4
3 4 168 30
3 29 177 6
3 6 173 32
3 62 173 6
3 6 177 62
3 31 172 7
3 7 176 34
3 7 172 58
3 58 176 7
3 33 169 8
3 8 169 47
3 48 174 13
3 13 174 49
3 49 179 14
3 14 179 60
3 57 163 16
3 16 163 61
3 164 175 21
3 21 178 164
3 23 170 22
3 22 170 168
3 164 170 23
3 23 175 164
3 30 167 29
3 167 177 29
3 30 168 167
3 32 163 31
3 163 172 31
3 32 173 163
3 34 166 33
3 166 169 33
3 34 176 166
3 47 171 48
3 169 171 47
3 48 171 165
3 165 174 48
3 49 174 165
3 165 179 49
3 58 172 57
3 57 172 163
3 59 176 58
3 60 161 59
3 161 166 59
3 166 176 59
3 60 165 161
3 60 179 165
3 61 173 62
3 163 173 61
3 62 177 63
3 63 162 64
3 63 167 162
3 63 177 167
3 162 164 64
3 164 178 64
3 165 171 161
3 161 169 166
3 161 171 169
3 162 170 164
3 167 168 162
3 168 170 162
4 83 164 76 181
4 115 165 122 180
4 84 97 86 181
4 86 97 89 181
4 108 134 109 107
4 109 134 141 107
4 76 164 145 181
4 115 146 165 180
4 145 76 69 164
4 115 123 165 146
4 145 164 138 181
4 131 165 146 180
4 69 138 145 164
4 131 165 123 146
4 83 170 164 181
4 122 165 171 180
4 122 117 165 115
4 83 78 76 164
4 133 165 179 123
4 164 69 140 178
4 179 125 133 123
4 69 71 140 178
4 119 169 94 114
4 111 101 109 139
4 86 89 135 181
4 135 84 86 181
4 122 113 115 180
4 83 76 74 181
4 105 80 75 168
4 36 114 95 116
4 115 121 152 180
4 76 151 82 181
4 97 27 77 75
4 95 103 104 182
4 135 167 84 181
4 124 131 123 160
4 135 89 148 181
4 100 157 103 93
4 122 171 118 180
4 83 79 170 181
4 163 134 109 108
4 169 119 118 114
4 80 79 75 168
4 134 141 163 109
4 139 141 134 107
4 97 27 96 77
4 138 69 140 164
4 123 133 165 131
4 89 97 96 181
4 139 109 141 107
4 122 118 113 180
4 83 74 79 181
4 113 121 115 180
4 76 82 74 181
4 115 152 146 180
4 151 76 145 181
4 108 134 107 132
4 116 95 36 104
4 102 136 87 88
4 114 169 94 180
4 89 88 86 135
4 138 164 137 181
4 131 129 165 180
4 101 109 139 107
4 50 146 127 156
4 21 164 70 175
4 145 19 73 155
4 162 137 164 181
4 165 129 161 180
4 69 21 178 70
4 50 123 160 124
4 19 73 69 159
4 123 50 160 127
4 106 139 107 110
4 103 130 90 93
4 85 86 87 135
4 69 138 159 145
4 146 123 131 160
4 75 105 168 181
4 73 69 159 145
4 164 70 69 178
4 127 123 146 160
4 86 85 84 135
4 19 145 73 159
4 50 146 160 127
4 21 164 178 70
4 167 168 105 181
4 69 138 72 159
4 145 137 143 181
4 114 94 95 180
4 99 91 128 93
4 132 112 106 98
4 94 36 114 95
4 81 149 96 77
4 147 104 103 180
4 95 116 114 180
4 95 104 180 182
4 97 75 77 181
4 169 114 118 180
4 168 79 75 181
4 75 97 105 181
4 132 107 108 98
4 97 77 96 181
4 111 109 61 139
4 97 27 75 105
4 145 138 137 181
4 104 120 116 150
4 162 164 170 181
4 165 161 171 180
4 167 63 162 181
4 103 180 104 182
4 107 139 106 132
4 135 148 67 181
4 88 89 158 135
4 139 111 101 136
4 104 116 95 180
4 106 107 132 98
4 64 164 140 178
4 179 60 165 133
4 149 96 77 181
4 147 150 104 180
4 88 136 87 135
4 148 158 89 135
4 130 91 90 93
4 87 86 88 135
4 150 152 116 180
4 118 171 169 180
4 149 77 151 181
4 168 170 79 181
4 134 139 107 132
4 104 150 116 180
4 107 139 101 110
4 92 91 90 182
4 165 49 126 174
4 179 125 123 126
4 19 69 72 159
4 69 21 71 178
4 125 179 49 126
4 164 137 162 64
4 165 60 161 129
4 177 84 85 135
4 85 87 136 135
4 157 100 130 93
4 123 165 179 126
4 135 177 84 167
4 148 143 67 181
4 94 180 169 182
4 165 49 179 126
4 130 147 103 182
4 103 157 130 93
4 90 130 103 182
4 143 151 145 181
4 152 142 146 180
4 165 60 129 131
4 164 138 137 64
4 148 89 43 96
4 33 166 92 94
4 164 140 138 64
4 60 165 133 131
4 130 128 91 93
4 130 147 157 103
4 153 112 106 132
4 152 121 116 180
4 77 82 151 181
4 78 20 76 70
4 100 128 130 93
4 147 142 180 182
4 147 55 142 182
4 137 162 63 181
4 166 92 94 182
4 135 67 137 181
4 99 91 58 128
4 91 130 90 182
4 109 141 61 139
4 131 146 56 142
4 147 180 103 182
4 129 180 142 182
4 128 108 99 98
4 111 61 173 136
4 111 173 85 136
4 169 166 33 94
4 149 148 43 96
4 94 95 180 182
4 139 106 144 110
4 141 61 163 109
4 108 99 172 128
4 46 123 115 127
4 73 76 20 69
4 69 76 20 70
4 102 101 136 110
4 88 102 136 66
4 100 112 153 128
4 166 94 169 182
4 91 92 176 182
4 123 51 131 124
4 111 85 101 136
4 128 112 132 98
4 100 112 128 98
4 143 137 67 181
4 94 92 95 182
4 168 167 162 181
4 56 129 131 142
4 134 163 57 108
4 57 134 108 132
4 147 130 55 182
4 136 102 110 154
4 169 171 161 180
4 168 162 170 181
4 129 142 55 182
4 144 106 139 132
4 128 132 108 98
4 84 105 167 30
4 52 141 134 139
4 139 61 111 136
4 76 82 151 25
4 152 115 45 121
4 147 38 104 150
4 104 38 147 103
4 44 152 116 150
4 149 24 151 77
4 117 126 115 46
4 105 167 30 168
4 116 121 113 180
4 77 74 82 181
4 11 102 88 66
4 99 91 7 58
4 54 157 100 130
4 161 180 129 182
4 171 48 165 122
4 170 23 83 164
4 113 118 114 180
4 74 75 79 181
4 91 176 130 182
4 91 58 128 130
4 62 177 85 135
4 172 57 108 128
4 114 116 113 180
4 74 77 75 181
4 101 85 87 136
4 136 88 66 135
4 123 46 115 126
4 58 172 99 128
4 128 54 100 130
4 158 148 67 135
4 135 177 167 63
4 90 103 95 182
4 136 62 85 135
4 129 55 130 182
4 132 153 112 128
4 145 76 151 25
4 45 146 115 152
4 157 55 147 130
4 176 58 91 130
4 37 116 36 104
4 88 158 66 135
4 169 180 161 182
4 101 139 136 110
4 27 28 96 77
4 148 149 143 181
4 147 142 150 180
4 116 152 44 121
4 82 151 24 77
4 161 129 59 182
4 132 108 57 128
4 144 53 153 106
4 66 102 136 154
4 11 102 66 154
4 56 146 131 160
4 68 159 138 145
4 172 99 7 58
4 149 5 81 96
4 166 59 176 182
4 150 142 152 180
4 143 149 151 181
4 149 81 24 77
4 120 44 116 150
4 112 10 100 153
4 173 62 85 136
4 166 169 161 182
4 93 100 128 98
4 54 100 153 128
4 15 131 124 160
4 139 52 17 132
4 136 87 101 102
4 127 115 12 156
4 2 76 73 155
4 76 145 155 25
4 45 115 146 156
4 26 75 27 105
4 139 136 110 154
4 93 128 99 98
4 169 8 119 94
4 104 9 120 150
4 106 53 153 132
4 35 94 36 114
4 153 112 40 106
4 59 130 176 182
4 75 26 80 105
4 94 35 119 114
4 116 37 120 104
4 10 54 100 153
4 173 85 6 111
4 166 176 92 182
4 96 28 81 77
4 17 144 139 132
4 129 130 59 182
4 59 161 60 129
4 63 162 137 64
4 108 163 57 172
4 4 80 105 168
4 134 52 139 132
4 118 119 169 47
4 22 79 80 168
4 62 85 6 173
4 166 161 59 182
4 60 179 14 133
4 64 140 1 178
4 149 43 5 96
4 8 169 33 94
4 58 176 59 130
4 131 51 15 124
4 106 144 53 132
4 142 56 129 55
4 143 67 137 68
4 67 66 158 135
4 135 62 177 63
4 58 57 172 128
4 173 61 62 136
4 12 115 127 46
4 76 20 2 73
4 157 54 55 130
4 157 39 100 103
4 85 84 177 29
4 159 138 0 68
4 131 15 56 160
4 155 2 76 25
4 45 12 115 156
4 53 54 153 128
4 136 65 66 154
4 13 174 48 117
4 175 3 23 78
4 163 16 61 141
4 57 16 163 134
4 9 104 38 150
4 72 138 0 159
4 30 4 105 168
4 144 153 40 106
4 35 119 8 94
4 141 163 16 134
4 158 89 88 42
4 34 91 92 176
4 17 144 65 139
4 144 17 53 132
4 171 118 169 47
4 79 22 170 168
4 80 26 4 105
4 31 163 108 172
4 110 41 144 154
4 95 92 90 182
4 138 0 18 72
4 58 91 7 176
4 31 163 109 108
4 3 20 78 70
4 158 11 88 66
4 43 42 89 148
4 92 34 166 33
4 81 24 5 149
4 9 44 120 150
4 175 21 3 70
4 34 7 91 176
4 132 53 153 128
4 136 139 65 154
4 158 88 11 42
4 41 144 106 110
4 167 29 84 30
4 78 175 3 70
4 39 10 157 100
4 19 2 73 155
4 50 127 12 156
4 177 6 85 29
4 39 147 38 103
4 48 171 118 122
4 79 23 83 170
4 92 34 176 166
4 42 158 89 148
4 160 124 15 50
4 10 54 157 100
4 80 4 22 168
4 119 8 169 47
4 28 81 5 96
4 177 85 6 62
4 120 37 9 104
4 44 152 45 121
4 24 151 82 25
4 47 171 118 48
4 22 23 79 170
4 126 117 13 46
4 134 16 141 52
4 84 177 29 167
4 49 174 13 126
4 163 32 31 109
4 39 157 147 103
4 40 41 144 106
4 117 13 174 126
4 179 49 14 125
4 21 1 71 178
4 71 1 18 140
4 133 125 14 51
4 0 19 72 159
4 110 102 11 154
4 99 7 108 172
4 140 71 1 178
4 125 14 179 133
4 108 7 31 172
4 110 11 41 154
4 153 112 10 40
4 173 6 32 111
4 148 96 181 89
4 181 96 148 149
4 181 84 105 167
4 181 105 84 97
4 164 78 70 175
4 146 127 115 123
4 146 115 127 156
4 73 145 76 69
4 76 145 73 155
4 32 111 163 173
4 32 163 111 109
4 61 163 111 173
4 61 111 163 109
4 165 117 48 174
4 165 48 117 122
4 78 164 23 175
4 23 164 78 83
4 63 181 135 137
4 135 181 63 167
4 126 117 165 174
4 137 145 68 138
4 68 145 137 143
4 131 142 180 146
4 180 142 131 129
4 70 76 164 69
4 70 164 76 78
4 140 18 72 138
4 72 18 140 71
4 72 69 140 138
4 140 69 72 71
4 123 133 51 125
4 123 51 133 131
4 115 126 165 123
4 115 165 126 117
4 154 139 144 110
4 154 144 139 65

CELL_TYPES 903
1
1
1
1
1
1
1
1
1
1
1
1
1
1
1
1
1
1
3
3
3
3
3
3
3
3
3
3
3
3
3
3
3
3
3
3
3
3
3
3
3
3
3
3
3
3
3
3
3
3
3
3
3
3
3
3
3
3
3
3
3
3
3
3
3
3
3
3
3
3
3
3
3
3
3
3
3
3
3
3
3
3
3
3
3
3
3
3
3
3
3
3
3
3
5
5
5
5
5
5
5
5
5
5
5
5
5
5
5
5
5
5
5
5
5
5
5
5
5
5
5
5
5
5
5
5
5
5
5
5
5
5
5
5
5
5
5
5
5
5
5
5
5
5
5
5
5
5
5
5
5
5
5
5
5
5
5
5
5
5
5
5
5
5
5
5
5
5
5
5
5
5
5
5
5
5
5
5
5
5
5
5
5
5
5
5
5
5
5
5
5
5
5
5
5
5
5
5
5
5
5
5
5
5
5
5
5
5
5
5
5
5
5
5
5
5
5
5
5
5
5
5
5
5
5
5
5
5
5
5
5
5
5
5
5
5
5
5
5
5
5
5
5
5
5
5
5
5
5
5
5
5
5
5
5
5
5
5
5
5
5
5
5
5
5
5
5
5
5
5
5
5
5
5
5
5
5
5
5
5
5
5
5
5
5
5
5
5
5
5
5
5
5
5
5
5
5
5
5
5
5
5
5
5
5
5
5
5
5
5
5
5
5
5
5
5
5
5
5
5
5
5
5
5
5
5
5
5
5
5
5
5
5
5
5
5
5
5
5
5
5
5
5
5
5
5
5
5
5
5
5
5
5
5
5
5
5
5
5
5
5
5
5
5
5
5
5
5
5
5
5
5
5
5
5
5
5
5
5
5
5
5
5
5
5
5
5
5
5
5
5
5
5
5
5
5
5
5
5
5
5
5
5
5
5
5
5
5
5
5
5
5
5
5
5
5
5
5
5
5
5
5
5
5
5
5
5
5
5
5
5
5
5
5
5
5
5
5
5
5
5
5
5
5
5
5
5
5
5
5
10
10
10
10
10
10
10
10
10
10
10
10
10
10
10
10
10
10
10
10
10
10
10
10
10
10
10
10
10
10
10
10
10
10
10
10
10
10
10
10
10
10
10
10
10
10
10
10
10
10
10
10
10
10
10
10
10
10
10
10
10
10
10
10
10
10
10
10
10
10
10
10
10
10
10
10
10
10
10
10
10
10
10
10
10
10
10
10
10
10
10
10
10
10
10
10
10
10
10
10
10
10
10
10
10
10
10
10
10
10
10
10
10
10
10
10
10
10
10
10
10
10
10
10
10
10
10
10
10
10
10
10
10
10
10
10
10
10
10
10
10
10
10
10
10
10
10
10
10
10
10
10
10
10
10
10
10
10
10
10
10
10
10
10
10
10
10
10
10
10
10
10
10
10
10
10
10
10
10
10
10
10
10
10
10
10
10
10
10
10
10
10
10
10
10
10
10
10
10
10
10
10
10
10
10
10
10
10
10
10
10
10
10
10
10
10
10
10
10
10
10
10
10
10
10
10
10
10
10
10
10
10
10
10
10
10
10
10
10
10
10
10
10
10
10
10
10
10
10
10
10
10
10
10
10
10
10
10
10
10
10
10
10
10
10
10
10
10
10
10
10
10
10
10
10
10
10
10
10
10
10
10
10
10
10
10
10
10
10
10
10
10
10
10
10
10
10
10
10
10
10
10
10
10
10
10
10
10
10
10
10
10
10
10
10
10
10
10
10
10
10
10
10
10
10
10
10
10
10
10
10
10
10
10
10
10
10
10
10
10
10
10
10
10
10
10
10
10
10
10
10
10
10
10
10
10
10
10
10
10
10
10
10
10
10
10
10
10
10
10
10
10
10
10
10
10
10
10
10
10
10
10
10
10
10
10
10
10
10
10
10
10
10
10
10
10
10
10
10
10
10
10
10
10
10
10
10
10
10
10
10
10
10
10
10
10
10
10
10
10
10
10
10
10
10
10
10
10
10
10
10
10
10
10
10
10
10
10
10
10
10
10
10
10
10
10
10
10
10
10
10
10
10

CELL_DATA 903
SCALARS CellEntityIds int 1
LOOKUP_TABLE default
-1
-1
-1
-1
-1
-1
-1
-1
-1
-1
-1
-1
-1
-1
-1
-1
-1
-1
1
1
12
12
19
19
20
20
21
21
21
22
22
22
23
23
23
23
24
24
24
25
25
25
2
2
2
3
3
3
3
4
4
4
5
5
5
6
6
6
7
7
7
8
8
9
9
9
10
10
11
11
13
13
14
14
15
15
15
15
15
16
16
16
16
16
17
17
17
17
17
18
18
18
18
18
26
26
26
26
26
26
26
26
26
26
26
26
26
26
26
26
27
27
27
27
27
27
27
27
27
27
27
27
27
27
27
27
27
27
27
27
27
27
27
27
27
27
27
27
27
27
28
28
28
28
28
28
28
28
28
28
28
28
28
28
28
28
28
28
28
28
28
28
28
28
28
28
28
28
28
28
28
28
28
28
28
28
28
28
28
28
28
28
28
28
28
28
28
28
28
28
28
28
28
28
28
28
28
28
28
28
28
28
28
28
28
28
28
28
28
28
28
28
28
28
28
28
28
28
28
28
28
28
29
29
29
29
29
29
29
29
29
29
29
29
29
29
29
29
29
29
29
29
29
29
29
29
29
29
29
29
29
29
30
30
30
30
30
30
30
30
30
30
30
30
30
30
30
30
31
31
31
31
31
31
31
31
31
31
31
31
31
31
31
31
31
31
31
31
31
31
31
31
31
31
32
32
32
32
32
32
32
32
32
32
32
32
32
32
32
32
32
32
32
32
32
32
32
32
32
32
33
33
33
33
33
33
33
33
33
33
33
33
33
33
33
33
33
33
33
33
33
33
33
33
33
33
33
33
33
33
33
33
33
33
33
33
33
33
33
33
33
33
33
33
33
33
33
33
33
33
33
33
33
33
33
33
33
33
33
33
33
33
33
33
33
34
34
34
34
34
34
34
34
34
34
34
34
34
34
34
34
34
34
34
34
34
34
34
34
34
34
34
34
34
34
34
34
34
34
34
34
34
34
34
34
34
34
34
34
34
34
34
34
34
34
34
34
34
34
34
34
34
34
34
34
34
34
34
34
34
35
35
35
35
35
35
35
35
35
35
35
35
35
35
35
35
35
35
35
35
35
35
35
35
35
35
35
35
35
35
35
35
35
35
35
35
35
35
35
35
35
35
35
35
35
35
35
35
35
35
35
35
35
35
35
35
35
35
35
35
35
35
35
35
35
35
35
35
35
35
35
35
35
35
35
35
35
35
35
35
35
35
35
35
35
35
35
35
35
35
35
35
35
35
35
35
35
35
35
35
35
35
35
35
35
35
35
35
35
35
35
35
35
35
35
35
35
35
35
35
35
35
35
35
35
35
35
35
35
35
35
35
35
35
35
35
35
35
35
35
35
35
35
35
35
35
35
35
35
35
35
35
35
35
35
35
35
35
35
35
35
35
35
35
35
35
35
35
35
35
35
35
35
35
35
35
35
35
35
35
35
35
35
35
35
35
35
35
35
35
35
35
35
35
35
35
35
35
35
35
35
35
35
35
35
35
35
35
35
35
35
35
35
35
35
35
35
35
35
35
35
35
35
35
35
35
35
35
35
35
35
35
35
35
35
35
35
35
35
35
35
35
35
35
35
35
35
35
35
35
35
35
35
35
35
35
35
35
35
35
35
35
35
35
35
35
35
35
35
35
35
35
35
35
35
35
35
35
35
35
35
35
35
35
35
35
35
35
35
35
35
35
35
35
35
35
35
35
35
35
35
35
35
35
35
35
35
35
35
35
35
35
35
35
35
35
35
35
35
35
35
35
35
35
35
35
35
35
35
35
35
35
35
35
35
35
35
35
35
35
35
35
35
35
35
35
35
35
35
35
35
35
35
35
35
35
35
35
35
35
35
35
35
35
35
35
35
35
35
35
35
35
35
35
35
35
35
35
35
35
35
35
35
35
35
35
35
35
35
35
35
35
35
35
35
35
35
35
35
35
35
35
35
35
35
35
35
35
35
35
35
35
35
35
35
35
35
35
35
35
35
35
35
35
35
35
35
35
35
35
35
35
35
35
35
35
35
35
35
35
35
35
35
35
35
35
35
35
35
35
35
35
35
