# vtk DataFile Version 2.0
Geometry_Geometry, Created by Gmsh 4.15.0-git-d85c0cc
ASCII
DATASET UNSTRUCTURED_GRID
POINTS 247 double
30 0 10
30 0 0
30 10 10
30 10 0
16 10 0
16 10 10
10 4 0
4 10.0000000000001 0
10 16 0
10 16 10
4 10.0000000000001 10
10 4 10
10 30 10
10 30 0
0 30 0
0 30 10
0 0 0
0 0 10
30 0 5.019289954889153
30 5.412636742135419 10
30 10 3.411218409675093
30 10 6.606389046325323
30 5.485923483799722 0
19.103897414483 10 0
22.42217350336966 10 0
26.02115906664455 10 0
19.0908222093183 10 10
22.28036307080776 10 10
25.96806791344374 10 10
16 9.999999999999998 2.499999999999999
16 9.999999999999998 4.99999999999999
16 9.999999999999998 7.499999999999988
12.23297247383014 4.430993452049377 0
14.13201321363741 5.649544069603071 0
15.50330118605271 7.609670303997611 0
4.478001594032126 7.65318649984958 0
5.821797172749939 5.693885610627651 0
7.771916967900962 4.429035451371786 0
7.000000000000022 15.19615242270664 0
4.803847577293379 13.00000000000002 0
10 16 2.499999999999999
10 16 4.99999999999999
10 16 7.499999999999988
7.000000000000022 15.19615242270664 10
4.803847577293379 13.00000000000002 10
4.492299689817669 7.619824104563392 10
5.80320435884399 5.712004390583648 10
7.716443028687434 4.451543677853292 10
12.29237691286516 4.455181870488193 10
14.22475160057 5.739545339581559 10
15.53843432765164 7.692242387448382 10
10 19.32211677463647 10
10 23.84422085763043 10
10 19.32211677463647 0
10 23.84422085763043 0
0 0 3.397593395240141
0 0 6.827332809737586
0 3.133348667249415 10
0 5.919395683424377 10
0 8.772564887418529 10
0 11.93601712195285 10
0 16.1543053609748 10
0 21.93760883096413 10
0 3.134288291135855 0
0 5.838983374540168 0
0 8.564372574339922 0
0 11.78464320295993 0
0 16.1424048138262 0
0 22.04183220792124 0
3.446583592753317 0 0
6.838805479926908 0 0
9.957232709073898 0 0
12.89713218429678 0 0
16.12792012485293 0 0
20.16460014192566 0 0
24.55718769635972 0 0
3.218861918807519 0 10
6.12879903509335 0 10
8.997677376847149 0 10
12.2360568518263 0 10
15.89392398324591 0 10
19.8125748654018 0 10
24.49766208790057 0 10
30 5.415871023626005 5.004977339704409
30 2.737406981851659 2.684682230883854
30 2.708105277162802 7.309824844661001
30 7.735071983898944 7.603794165765038
30 7.756011052945889 2.405173983864972
30 8.045701947099033 5.007531718340392
20.99916438041467 10 4.92098905647097
25.71613359355716 10 5.008803728000208
18.4186190269753 10 6.131098691340577
18.43899177014172 10 3.133745869343294
23.60316428137558 10 6.980785157006258
23.65483102249803 10 3.005462066943678
20.39089507013158 10 7.713110902030248
27.25801413147796 10 2.739047988769864
27.24055448242408 10 7.267463609888666
20.92381161818142 10 2.212039398551588
28.04294044149184 10 5.006584556531831
17.95323745189792 10 8.245792507363689
17.49137056909088 10 1.307739237367282
15.49854863031567 7.598758038003325 7.39962579459346
13.49719480952647 5.12458940557607 7.736253866149873
5.061174896500292 13.40705247934943 5.034988001921755
4.274471432051247 11.7939683992765 2.243715480362042
5.80837532122295 14.29305049495894 2.641449601768862
4.141381297372398 11.29483083729964 5.214178010279509
14.44138462306281 5.965882670270826 4.982273892420201
15.71188326338728 8.163048834226585 3.109238678281493
8.305318433324196 15.75569755872989 2.485445309431322
7.053693747066559 15.22678481132764 5.078989257431075
14.75539389808447 6.341280432438017 2.227221111951823
7.459862430635954 4.564220283279931 7.687357220341257
8.855214108949552 4.110223666075949 5.16080134613131
6.42759143785484 5.179429798757003 5.163017172045733
7.096320072275531 4.749414996657037 2.607908252189387
5.34478890402527 6.21463216425223 2.576313171423803
9.702748399311762 4.007367733133604 7.515773172365617
13.05970879383305 4.838780948560632 2.403837291271774
12.28106776423316 4.450519857232 5.343885266813172
5.926142899252107 14.40496178447509 7.74084354989904
4.379001091825124 12.09865939930634 7.508901704237017
4.742072552240145 7.109636881965601 5.076928348583202
4.108456385851289 8.864344311605164 6.985485571242514
5.428010412457895 6.114525613080614 7.450949213374902
8.929601705472939 4.096251403466306 2.164280154825755
10.86156640011659 4.062180253814524 2.424825409177426
11.7076796465814 4.248145496915659 8.041799160787837
4.322417387037946 8.059624862818797 2.274185463270677
8.210166328645244 15.72682245480727 7.551357616666305
4.020178545187063 9.50833408847177 3.661852665713089
10 21.8981348206502 4.918926534879652
10 26.92211042881522 5.424110273135175
10 18.59721584524446 3.776795960391951
10 18.72309923485469 6.865798450120613
10 20.95591557919294 2.199867327583063
10 24.14756800520833 3.232733053097969
10 21.86825433000281 7.771448490294334
10 18.17504963981477 1.695332657595002
10 17.51130400237279 8.59144961253015
5 30 5
0 7.597398779545927 4.980992024037868
0 12.2147984942141 4.994634273946295
0 17.35936532496415 4.998558831557046
0 3.520150497837232 6.413130969978299
0 4.35681519355552 2.698821991159106
0 9.860906284643402 3.028002054786548
0 9.841000524113857 6.93952624458446
0 25.74995436237346 5.064887739008507
0 6.938735761669376 2.535637107031608
0 7.08072637550033 7.602388084982298
0 14.04516124146382 7.607025516985379
0 13.96352400839306 2.32818757235644
0 2.168146843250902 2.253223169289047
0 2.045105644165081 7.941164242066121
0 4.526372175336895 8.323013625362275
0 2.190790437624295 4.731616314236681
0 21.71768522001732 5.32995651006568
0 5.172998460152795 5.326514302398305
7.333944897466973 0 4.929200128359071
12.57357760398591 0 5.000461634584912
17.7917221044896 0 5.026172304720384
4.864517863873324 0 5.95986897385826
23.90824304967451 0 5.164710911254097
10.09836226029726 0 7.008667054228098
4.895817610550024 0 2.711461015395415
9.975614262060116 0 3.476838303445595
14.63818768917844 0 2.723386636325523
15.21808061781447 0 6.36641992796477
7.17248852438775 0 7.716516548301723
7.536545609146778 0 2.4904413399625
26.91561415526503 0 3.401629340570958
20.7262963771223 0 6.984072936104463
18.14626013338929 0 2.113014520873042
13.01937816007087 0 7.628095599253673
2.272780988608684 0 4.738039125397671
26.91424366071673 0 6.92548785401614
2.244671499388433 0 7.80207295858626
17.87844239953169 0 7.750363225015327
12.20053783442403 0 2.23679535676952
4.725867768310074 0 8.295691696149248
20.88238491716018 0 3.214661778825331
1.927243144338775 0 1.924734536995659
19.57996965723456 4.908949582243048 10
4.725528198414492 20.6817443321451 10
24.80167858158855 4.187662509562731 10
3.367945721227081 3.373181301603768 10
5.394380767956442 24.67445713947885 10
16.66642097510096 3.434974977838722 10
3.599301542306574 16.40069845769348 10
5.693354385103514 3.203202709678855 10
2.594159311775018 5.850216404317112 10
13.80917187000797 2.644404886288086 10
8.346295787028485 2.315245586225366 10
18.28764465528447 7.348333210129224 10
2.083714374067549 8.070954017539229 10
10.94692979976251 2.235805390500275 10
22.32012163163033 6.872824354942978 10
16.75691324511559 5.768209833276258 10
2.303162727068761 12.95912399435552 10
21.92337484037795 2.805587227915179 10
7.160931025007549 18.19731346721919 10
2.068017513215944 2.056442573813491 10
7.592706531396095 21.52090353554426 10
26.78307563778784 6.529906996284805 10
27.50651821812744 2.841606500630622 10
1.602647369537358 10.32372943889858 10
18.77525286427224 2.229902357599387 10
1.617568965029291 4.185768255334034 10
4.223053385944613 5.025657368966137 10
4.203728474231763 1.64635721869373 10
19.81667154618879 5.019349632754874 0
24.8188591676262 4.75651347252189 0
3.94487066094847 19.93558735701621 0
2.294786774976542 4.428104108472427 0
5.11082563431528 3.073827225845701 0
5.263332712704162 24.56746820645022 0
14.47480081603093 2.814238330447441 0
16.6935755307789 5.160658794721995 0
4.284992222982458 15.97680060039061 0
8.481538614545144 2.079824388423241 0
11.43454378744452 2.142410940952775 0
2.21316471073429 6.809856206210632 0
18.24242369022384 7.443726342633059 0
17.74974748128481 2.491676465160221 0
22.36986496642827 2.682447789290215 0
22.33709646383966 6.872679324323872 0
2.014009507702427 13.92560062147638 0
2.187742861160899 2.126729023217022 0
2.563114336674433 8.839714435427117 0
7.144164749867916 18.00230432848056 0
2.151934669788053 11.13156356122379 0
7.502234948158285 21.41960128286426 0
27.01066542215466 6.838331300111017 0
27.06535865813273 2.605468079656461 0
3.983715177361637 5.531771930201199 0
19.40130223831467 5.213288065824178 4.995720009071338
24.45936136778328 5.099145723478914 5.03506735983153
5.539676759408949 19.84971861045089 5.272820073823588
3.547240167900084 3.266989718156399 6.449659959217369
3.196094043896872 3.233004571462306 3.060777989336866
16.12274116108596 3.214920167669893 3.378070802388496
21.98319002561978 6.98929824808366 3.538094330656577
26.99916742052744 6.997250125954631 4.098272504329703
3.854626371250269 16.7090319275217 5.878112569280649
2.57715354755743 5.892236666532023 7.12198706843448

CELLS 1244 5516
1 0
1 1
1 2
1 3
1 4
1 5
1 6
1 7
1 8
1 9
1 10
1 11
1 12
1 13
1 14
1 15
1 16
1 17
2 1 18
2 18 0
2 0 19
2 19 2
2 3 20
2 20 21
2 21 2
2 1 22
2 22 3
2 4 23
2 23 24
2 24 25
2 25 3
2 5 26
2 26 27
2 27 28
2 28 2
2 4 29
2 29 30
2 30 31
2 31 5
2 6 32
2 32 33
2 33 34
2 34 4
2 7 35
2 35 36
2 36 37
2 37 6
2 8 38
2 38 39
2 39 7
2 8 40
2 40 41
2 41 42
2 42 9
2 9 43
2 43 44
2 44 10
2 10 45
2 45 46
2 46 47
2 47 11
2 11 48
2 48 49
2 49 50
2 50 5
2 9 51
2 51 52
2 52 12
2 13 12
2 8 53
2 53 54
2 54 13
2 14 13
2 15 12
2 14 15
2 16 55
2 55 56
2 56 17
2 17 57
2 57 58
2 58 59
2 59 60
2 60 61
2 61 62
2 62 15
2 16 63
2 63 64
2 64 65
2 65 66
2 66 67
2 67 68
2 68 14
2 16 69
2 69 70
2 70 71
2 71 72
2 72 73
2 73 74
2 74 75
2 75 1
2 17 76
2 76 77
2 77 78
2 78 79
2 79 80
2 80 81
2 81 82
2 82 0
3 18 85 0
3 0 85 19
3 1 84 18
3 22 84 1
3 19 86 2
3 2 86 21
3 20 87 3
3 3 87 22
3 84 85 18
3 19 85 83
3 83 86 19
3 21 88 20
3 20 88 87
3 86 88 21
3 83 84 22
3 22 87 83
3 83 85 84
3 83 88 86
3 87 88 83
3 21 97 2
3 2 97 28
3 3 96 20
3 25 96 3
3 4 101 23
3 29 101 4
3 26 100 5
3 5 100 31
[...]
CELL_DATA 1244
SCALARS CellEntityIds int 1
LOOKUP_TABLE default
-1
-1
-1
-1
-1
-1
-1
-1
-1
-1
-1
-1
-1
-1
-1
-1
-1
-1
1
1
12
12
19
19
19
20
20
21
21
21
21
22
22
22
22
23
23
23
23
24
24
24
24
25
25
25
25
2
2
2
3
3
3
3
4
4
4
5
5
5
5
6
6
6
6
7
7
7
8
9
9
9
10
11
13
14
14
14
15
15
15
15
15
15
15
16
16
16
16
16
16
16
17
17
17
17
17
17
17
17
18
18
18
18
18
18
18
18
26
26
26
26
26
26
26
26
26
26
26
26
26
26
26
26
26
26
26
27
27
27
27
27
27
27
27
27
27
27
27
27
27
27
27
27
27
27
27
27
27
27
27
27
27
27
27
27
27
27
27
27
27
27
27
27
27
27
28
28
28
28
28
28
28
28
28
28
28
28
28
28
28
28
28
28
28
28
28
28
28
28
28
28
28
28
28
28
28
28
28
28
28
28
28
28
28
28
28
28
28
28
28
28
28
28
28
28
28
28
28
28
28
28
28
28
28
28
28
28
28
28
28
28
28
28
28
28
28
28
28
28
28
28
28
28
28
28
28
28
28
28
28
28
28
28
29
29
29
29
29
29
29
29
29
29
29
29
29
29
29
29
29
29
29
29
29
29
29
29
29
29
29
30
30
30
30
31
31
31
31
31
31
31
31
31
31
31
31
31
31
31
31
31
31
31
31
31
31
31
31
31
31
31
31
31
31
31
31
31
31
31
31
31
31
31
31
31
31
31
31
31
31
31
31
31
31
31
31
32
32
32
32
32
32
32
32
32
32
32
32
32
32
32
32
32
32
32
32
32
32
32
32
32
32
32
32
32
32
32
32
32
32
32
32
32
32
32
32
32
32
32
32
32
32
32
32
32
32
32
32
32
32
32
32
32
32
32
32
32
32
32
32
32
32
32
33
33
33
33
33
33
33
33
33
33
33
33
33
33
33
33
33
33
33
33
33
33
33
33
33
33
33
33
33
33
33
33
33
33
33
33
33
33
33
33
33
33
33
33
33
33
33
33
33
33
33
33
33
33
33
33
33
33
33
33
33
33
33
33
33
33
33
33
33
33
33
33
33
33
33
33
33
33
33
33
33
33
33
33
33
33
33
33
33
33
34
34
34
34
34
34
34
34
34
34
34
34
34
34
34
34
34
34
34
34
34
34
34
34
34
34
34
34
34
34
34
34
34
34
34
34
34
34
34
34
34
34
34
34
34
34
34
34
34
34
34
34
34
34
34
34
34
34
34
34
34
34
34
34
34
34
34
34
34
34
34
34
34
34
34
34
34
34
34
34
34
34
34
34
35
35
35
35
35
35
35
35
35
35
35
35
35
35
35
35
35
35
35
35
35
35
35
35
35
35
35
35
35
35
35
35
35
35
35
35
35
35
35
35
35
35
35
35
35
35
35
35
35
35
35
35
35
35
35
35
35
35
35
35
35
35
35
35
35
35
35
35
35
35
35
35
35
35
35
35
35
35
35
35
35
35
35
35
35
35
35
35
35
35
35
35
35
35
35
35
35
35
35
35
35
35
35
35
35
35
35
35
35
35
35
35
35
35
35
35
35
35
35
35
35
35
35
35
35
35
35
35
35
35
35
35
35
35
35
35
35
35
35
35
35
35
35
35
35
35
35
35
35
35
35
35
35
35
35
35
35
35
35
35
35
35
35
35
35
35
35
35
35
35
35
35
35
35
35
35
35
35
35
35
35
35
35
35
35
35
35
35
35
35
35
35
35
35
35
35
35
35
35
35
35
35
35
35
35
35
35
35
35
35
35
35
35
35
35
35
35
35
35
35
35
35
35
35
35
35
35
35
35
35
35
35
35
35
35
35
35
35
35
35
35
35
35
35
35
35
35
35
35
35
35
35
35
35
35
35
35
35
35
35
35
35
35
35
35
35
35
35
35
35
35
35
35
35
35
35
35
35
35
35
35
35
35
35
35
35
35
35
35
35
35
35
35
35
35
35
35
35
35
35
35
35
35
35
35
35
35
35
35
35
35
35
35
35
35
35
35
35
35
35
35
35
35
35
35
35
35
35
35
35
35
35
35
35
35
35
35
35
35
35
35
35
35
35
35
35
35
35
35
35
35
35
35
35
35
35
35
35
35
35
35
35
35
35
35
35
35
35
35
35
35
35
35
35
35
35
35
35
35
35
35
35
35
35
35
35
35
35
35
35
35
35
35
35
35
35
35
35
35
35
35
35
35
35
35
35
35
35
35
35
35
35
35
35
35
35
35
35
35
35
35
35
35
35
35
35
35
35
35
35
35
35
35
35
35
35
35
35
35
35
35
35
35
35
35
35
35
35
35
35
35
35
35
35
35
35
35
35
35
35
35
35
35
35
35
35
35
35
35
35
35
35
35
35
35
35
35
35
35
35
35
35
35
35
35
35
35
35
35
35
35
35
35
35
35
35
35
35
35
35
35
35
35
35
35
35
35
35
35
35
35
35
35
35
35
35
35
35
35
35
35
35
35
35
35
35
35
35
35
35
35
35
35
35
35
35
35
35
35
35
35
35
35
35
35
35
35
35
35
35
35
35
35
35
35
35
35
35
35
35
35
35
35
35
35
35
35
35
35
35
35
35
35
35
35
35
35
35
35
35
35
35
35
35
35
35
35
35
35
35
35
35
35
35
35
35
35
35
35
35
35
35
35
35
35
35
35
35
35
35
35
35
35
35
35
35
35
35
35
35
35
35
35
35
35
35
35
35
35
35
35
35
35
35
35
35
35
35
35
35
35
35
35
35
35
35
35
35
35
35
35
35
35
35
35
35
35
35
35
35
35
35
35
35
35
35
