# vtk DataFile Version 2.0
shape2mesh, Created by Gmsh 4.13.1 
ASCII
DATASET UNSTRUCTURED_GRID
POINTS 343 double
30 -75 0
32 -75 10
40 -75 0
42 -75 10
40 -65 0
42 -65 10
30 -65 0
32 -65 10
30.16666668382377 -75 0.8333334191188545
30.49999999307877 -75 2.499999965393862
31.00000000000001 -75 5.000000000000044
31.50000000692125 -75 7.500000034606231
31.83333331617624 -75 9.166666580881193
40.16666668382377 -75 0.8333334191188545
40.49999999307877 -75 2.499999965393862
41.00000000000001 -75 5.000000000000044
41.50000000692125 -75 7.500000034606231
41.83333331617624 -75 9.166666580881193
30.83333341911885 -75 0
32.49999996539384 -75 0
35 -75 0
37.50000003460617 -75 0
39.16666658088115 -75 0
32.83333341911885 -75 10
34.49999996539384 -75 10
37 -75 10
39.50000003460617 -75 10
41.16666658088115 -75 10
40.16666668382377 -65 0.8333334191188545
40.49999999307877 -65 2.499999965393862
41.00000000000001 -65 5.000000000000044
41.50000000692125 -65 7.500000034606231
41.83333331617624 -65 9.166666580881193
40 -74.16666658088116 0
40 -72.50000003460616 0
40 -70 0
40 -67.49999996539383 0
40 -65.83333341911884 0
42 -74.16666658088116 10
42 -72.50000003460616 10
42 -70 10
42 -67.49999996539383 10
42 -65.83333341911884 10
30.16666668382377 -65 0.8333334191188545
30.49999999307877 -65 2.499999965393862
31.00000000000001 -65 5.000000000000044
31.50000000692125 -65 7.500000034606231
31.83333331617624 -65 9.166666580881193
39.16666658088115 -65 0
37.50000003460616 -65 0
35 -65 0
32.49999996539383 -65 0
30.83333341911885 -65 0
41.16666658088115 -65 10
39.50000003460616 -65 10
37 -65 10
34.49999996539383 -65 10
32.83333341911885 -65 10
30 -65.83333341911884 0
30 -67.49999996539384 0
30 -70 0
30 -72.50000003460617 0
30 -74.16666658088116 0
32 -65.83333341911884 10
32 -67.49999996539384 10
32 -70 10
32 -72.50000003460617 10
32 -74.16666658088116 10
31.00000010294262 -75 0.8333334191188519
32.66666664921761 -75 0.8333334191188522
35.16666668382377 -75 0.8333334191188521
37.66666671842995 -75 0.8333334191188519
39.33333326470492 -75 0.8333334191188519
31.33333341219762 -75 2.499999965393854
32.99999995847261 -75 2.499999965393854
35.49999999307877 -75 2.499999965393854
38.00000002768495 -75 2.499999965393854
39.66666657395992 -75 2.499999965393854
31.83333341911885 -75 5.000000000000029
33.49999996539385 -75 5.000000000000029
36.00000000000001 -75 5.000000000000029
38.50000003460619 -75 5.000000000000029
40.16666658088116 -75 5.000000000000029
32.33333342604009 -75 7.500000034606208
33.99999997231508 -75 7.500000034606208
36.50000000692124 -75 7.500000034606208
39.00000004152742 -75 7.500000034606208
40.6666665878024 -75 7.500000034606208
32.66666673529508 -75 9.166666580881166
34.33333328157007 -75 9.166666580881163
36.83333331617623 -75 9.166666580881163
39.33333335078241 -75 9.166666580881166
40.99999989705739 -75 9.166666580881163
40.16666668382377 -74.16666658088116 0.8333334191188522
40.16666668382377 -72.50000003460616 0.8333334191188524
40.16666668382377 -70 0.8333334191188522
40.16666668382377 -67.49999996539383 0.8333334191188522
40.16666668382377 -65.83333341911884 0.8333334191188522
40.49999999307877 -74.16666658088116 2.499999965393854
40.49999999307877 -72.50000003460616 2.499999965393855
40.49999999307877 -70 2.499999965393854
40.49999999307877 -67.49999996539383 2.499999965393854
40.49999999307877 -65.83333341911884 2.499999965393854
41.00000000000001 -74.16666658088116 5.000000000000029
41.00000000000001 -72.50000003460616 5.000000000000031
41.00000000000001 -70 5.000000000000029
41.00000000000001 -67.49999996539383 5.000000000000031
41.00000000000001 -65.83333341911884 5.000000000000031
41.50000000692124 -74.16666658088116 7.500000034606209
41.50000000692124 -72.50000003460616 7.500000034606209
41.50000000692124 -70 7.500000034606209
41.50000000692124 -67.49999996539383 7.500000034606209
41.50000000692124 -65.83333341911884 7.500000034606209
41.83333331617624 -74.16666658088116 9.16666658088117
41.83333331617624 -72.50000003460616 9.166666580881168
41.83333331617624 -70 9.16666658088117
41.83333331617624 -67.49999996539383 9.166666580881166
41.83333331617624 -65.83333341911884 9.166666580881168
39.33333326470493 -65 0.8333334191188519
37.66666671842993 -65 0.8333334191188522
35.16666668382377 -65 0.8333334191188521
32.66666664921759 -65 0.8333334191188519
31.00000010294262 -65 0.8333334191188519
39.66666657395992 -65 2.499999965393855
38.00000002768493 -65 2.499999965393854
35.49999999307877 -65 2.499999965393854
32.99999995847259 -65 2.499999965393854
31.33333341219762 -65 2.499999965393854
40.16666658088116 -65 5.000000000000029
38.50000003460617 -65 5.000000000000029
36.00000000000001 -65 5.000000000000029
33.49999996539383 -65 5.000000000000029
31.83333341911885 -65 5.000000000000029
40.6666665878024 -65 7.500000034606208
39.0000000415274 -65 7.500000034606208
36.50000000692124 -65 7.500000034606208
33.99999997231507 -65 7.500000034606208
32.33333342604009 -65 7.500000034606208
40.99999989705739 -65 9.166666580881166
39.3333333507824 -65 9.166666580881163
36.83333331617624 -65 9.166666580881163
34.33333328157006 -65 9.166666580881166
32.66666673529508 -65 9.166666580881163
30.16666668382377 -65.83333341911884 0.8333334191188522
30.16666668382377 -67.49999996539384 0.8333334191188524
30.16666668382377 -70 0.8333334191188522
30.16666668382377 -72.50000003460617 0.8333334191188522
30.16666668382377 -74.16666658088116 0.8333334191188522
30.49999999307877 -65.83333341911884 2.499999965393854
30.49999999307877 -67.49999996539384 2.499999965393855
30.49999999307877 -70 2.499999965393854
30.49999999307877 -72.50000003460617 2.499999965393854
30.49999999307877 -74.16666658088116 2.499999965393854
31.00000000000001 -65.83333341911884 5.000000000000029
31.00000000000001 -67.49999996539384 5.000000000000031
31.00000000000001 -70 5.000000000000029
31.00000000000001 -72.50000003460617 5.000000000000031
31.00000000000001 -74.16666658088116 5.000000000000031
31.50000000692124 -65.83333341911884 7.500000034606209
31.50000000692124 -67.49999996539384 7.500000034606209
31.50000000692124 -70 7.500000034606209
31.50000000692124 -72.50000003460617 7.500000034606209
31.50000000692124 -74.16666658088116 7.500000034606209
31.83333331617623 -65.83333341911884 9.16666658088117
31.83333331617623 -67.49999996539384 9.166666580881168
31.83333331617623 -70 9.16666658088117
31.83333331617623 -72.50000003460617 9.166666580881166
31.83333331617623 -74.16666658088116 9.166666580881168
30.83333341911885 -74.16666658088116 0
30.83333341911885 -72.50000003460617 0
30.83333341911885 -70 0
30.83333341911885 -67.49999996539384 0
30.83333341911885 -65.83333341911884 0
32.49999996539384 -74.16666658088116 0
32.49999996539383 -72.50000003460617 0
32.49999996539383 -70 0
32.49999996539383 -67.49999996539384 0
32.49999996539383 -65.83333341911884 0
35 -74.16666658088116 0
35 -72.50000003460617 0
35 -70 0
35 -67.49999996539383 0
35 -65.83333341911884 0
37.50000003460617 -74.16666658088116 0
37.50000003460617 -72.50000003460616 0
37.50000003460617 -70 0
37.50000003460617 -67.49999996539383 0
37.50000003460616 -65.83333341911884 0
39.16666658088115 -74.16666658088116 0
39.16666658088115 -72.50000003460616 0
39.16666658088116 -70 0
39.16666658088116 -67.49999996539383 0
39.16666658088116 -65.83333341911884 0
32.83333341911884 -74.16666658088116 10
32.83333341911884 -72.50000003460617 10
32.83333341911884 -70 10
32.83333341911884 -67.49999996539384 10
32.83333341911885 -65.83333341911884 10
34.49999996539384 -74.16666658088116 10
34.49999996539383 -72.50000003460617 10
34.49999996539383 -70 10
34.49999996539383 -67.49999996539384 10
34.49999996539383 -65.83333341911884 10
37 -74.16666658088116 10
37 -72.50000003460617 10
37 -70 10
37 -67.49999996539383 10
37 -65.83333341911884 10
39.50000003460617 -74.16666658088116 10
39.50000003460617 -72.50000003460616 10
39.50000003460617 -70 10
39.50000003460617 -67.49999996539383 10
39.50000003460616 -65.83333341911884 10
41.16666658088115 -74.16666658088116 10
41.16666658088115 -72.50000003460616 10
41.16666658088116 -70 10
41.16666658088116 -67.49999996539383 10
41.16666658088116 -65.83333341911884 10
31.00000010294263 -74.1666665808812 0.8333334191188498
31.00000010294261 -72.5000000346062 0.8333334191188498
31.0000001029426 -70.00000000000003 0.8333334191188498
31.00000010294261 -67.49999996539384 0.8333334191188498
31.00000010294263 -65.83333341911884 0.8333334191188498
32.66666664921758 -74.16666658088114 0.8333334191188498
32.6666666492176 -72.50000003460624 0.8333334191188504
32.66666664921759 -70.00000000000001 0.8333334191188497
32.6666666492176 -67.49999996539384 0.8333334191188497
32.66666664921758 -65.83333341911884 0.8333334191188498
35.16666668382375 -74.16666658088116 0.8333334191188493
35.1666666838238 -72.50000003460622 0.8333334191188499
35.16666668382376 -70 0.8333334191188498
35.16666668382378 -67.49999996539384 0.8333334191188503
35.16666668382378 -65.83333341911884 0.8333334191188498
37.66666671842995 -74.16666658088114 0.8333334191188495
37.66666671842993 -72.50000003460619 0.8333334191188499
37.66666671842994 -70.00000000000001 0.8333334191188498
37.66666671842992 -67.49999996539384 0.8333334191188502
37.66666671842994 -65.83333341911884 0.8333334191188499
39.33333326470493 -74.16666658088117 0.8333334191188494
39.33333326470492 -72.50000003460619 0.8333334191188499
39.33333326470492 -70.00000000000001 0.8333334191188498
39.33333326470493 -67.49999996539384 0.8333334191188497
39.33333326470493 -65.83333341911884 0.8333334191188497
31.33333341219761 -74.16666658088123 2.499999965393846
31.33333341219761 -72.50000003460619 2.499999965393845
31.33333341219763 -70 2.499999965393847
31.33333341219762 -67.49999996539384 2.499999965393847
31.33333341219761 -65.83333341911884 2.499999965393846
32.9999999584726 -74.16666658088114 2.499999965393845
32.9999999584726 -72.50000003460622 2.499999965393846
32.99999995847259 -70 2.499999965393847
32.9999999584726 -67.49999996539384 2.499999965393847
32.99999995847259 -65.83333341911884 2.499999965393847
35.49999999307876 -74.16666658088116 2.499999965393846
35.49999999307876 -72.50000003460619 2.499999965393847
35.49999999307877 -70 2.499999965393847
35.49999999307877 -67.49999996539384 2.499999965393847
35.49999999307877 -65.83333341911884 2.499999965393846
38.00000002768495 -74.16666658088116 2.499999965393847
38.00000002768495 -72.50000003460616 2.499999965393848
38.00000002768495 -70 2.499999965393847
38.00000002768495 -67.49999996539384 2.499999965393847
38.00000002768493 -65.83333341911884 2.499999965393846
39.66666657395993 -74.16666658088117 2.499999965393846
39.66666657395994 -72.50000003460617 2.499999965393847
39.66666657395996 -70 2.499999965393847
39.66666657395993 -67.49999996539384 2.499999965393847
39.66666657395995 -65.83333341911884 2.499999965393847
31.83333341911886 -74.16666658088116 5.000000000000015
31.83333341911886 -72.50000003460616 5.000000000000014
31.83333341911886 -70 5.000000000000012
31.83333341911887 -67.49999996539384 5.000000000000013
31.83333341911885 -65.83333341911884 5.000000000000012
33.49999996539384 -74.16666658088114 5.000000000000016
33.49999996539383 -72.50000003460623 5.000000000000014
33.49999996539383 -70 5.000000000000014
33.49999996539382 -67.49999996539384 5.000000000000014
33.49999996539383 -65.83333341911886 5.000000000000018
36 -74.16666658088116 5.000000000000014
35.99999999999999 -72.5000000346062 5.000000000000015
35.99999999999999 -70 5.000000000000012
36.00000000000002 -67.4999999653938 5.000000000000018
35.99999999999999 -65.83333341911884 5.000000000000016
38.5000000346062 -74.16666658088116 5.000000000000016
38.5000000346062 -72.50000003460616 5.000000000000014
38.50000003460617 -70 5.000000000000012
38.50000003460617 -67.49999996539384 5.000000000000014
38.50000003460615 -65.83333341911884 5.000000000000017
40.16666658088116 -74.16666658088116 5.000000000000015
40.16666658088116 -72.50000003460616 5.000000000000014
40.16666658088116 -70 5.000000000000014
40.16666658088115 -67.49999996539384 5.000000000000014
40.16666658088116 -65.83333341911884 5.000000000000017
32.33333342604008 -74.16666658088121 7.500000034606185
32.33333342604007 -72.50000003460619 7.500000034606182
32.33333342604008 -70 7.500000034606188
32.33333342604006 -67.49999996539384 7.500000034606183
32.33333342604008 -65.83333341911883 7.500000034606185
33.99999997231508 -74.16666658088114 7.500000034606187
33.99999997231505 -72.50000003460622 7.500000034606185
33.99999997231508 -70 7.500000034606188
33.99999997231505 -67.49999996539384 7.500000034606184
33.99999997231506 -65.83333341911884 7.500000034606187
36.50000000692124 -74.16666658088116 7.500000034606188
36.50000000692123 -72.50000003460622 7.500000034606185
36.50000000692125 -70 7.500000034606188
36.50000000692123 -67.49999996539381 7.500000034606185
36.50000000692125 -65.83333341911884 7.500000034606188
39.00000004152741 -74.16666658088116 7.500000034606186
39.00000004152741 -72.50000003460616 7.500000034606185
39.00000004152741 -70 7.500000034606188
39.00000004152739 -67.49999996539381 7.500000034606185
39.00000004152739 -65.83333341911884 7.500000034606187
40.66666658780239 -74.16666658088116 7.500000034606188
40.66666658780238 -72.50000003460617 7.500000034606185
40.66666658780241 -70 7.500000034606188
40.6666665878024 -67.49999996539384 7.500000034606183
40.66666658780239 -65.83333341911884 7.500000034606188
32.66666673529507 -74.1666665808812 9.166666580881135
32.66666673529507 -72.50000003460619 9.16666658088114
32.66666673529506 -70.00000000000001 9.166666580881142
32.66666673529506 -67.49999996539384 9.166666580881133
32.66666673529506 -65.83333341911884 9.166666580881138
34.33333328157007 -74.16666658088114 9.166666580881142
34.33333328157007 -72.5000000346062 9.166666580881142
34.33333328157008 -70 9.16666658088114
34.33333328157004 -67.49999996539384 9.166666580881142
34.33333328157007 -65.83333341911884 9.166666580881138
36.83333331617624 -74.16666658088116 9.166666580881142
36.83333331617622 -72.50000003460619 9.166666580881135
36.83333331617624 -70 9.16666658088114
36.83333331617623 -67.49999996539381 9.166666580881142
36.83333331617624 -65.83333341911884 9.166666580881138
39.3333333507824 -74.16666658088116 9.166666580881143
39.33333335078241 -72.50000003460616 9.166666580881142
39.33333335078242 -70 9.166666580881145
39.3333333507824 -67.49999996539384 9.166666580881138
39.33333335078238 -65.83333341911886 9.16666658088114
40.99999989705736 -74.16666658088117 9.166666580881142
40.99999989705737 -72.50000003460617 9.16666658088114
40.99999989705739 -70 9.166666580881142
40.99999989705741 -67.49999996539384 9.16666658088114
40.9999998970574 -65.83333341911884 9.166666580881138

CELLS 512 3256
1 0
1 1
1 2
1 3
1 4
1 5
1 6
1 7
2 0 8
2 8 9
2 9 10
2 10 11
2 11 12
2 12 1
2 2 13
2 13 14
2 14 15
2 15 16
2 16 17
2 17 3
2 0 18
2 18 19
2 19 20
2 20 21
2 21 22
2 22 2
2 1 23
2 23 24
2 24 25
2 25 26
2 26 27
2 27 3
2 4 28
2 28 29
2 29 30
2 30 31
2 31 32
2 32 5
2 2 33
2 33 34
2 34 35
2 35 36
2 36 37
2 37 4
2 3 38
2 38 39
2 39 40
2 40 41
2 41 42
2 42 5
2 6 43
2 43 44
2 44 45
2 45 46
2 46 47
2 47 7
2 4 48
2 48 49
2 49 50
2 50 51
2 51 52
2 52 6
2 5 53
2 53 54
2 54 55
2 55 56
2 56 57
2 57 7
2 6 58
2 58 59
2 59 60
2 60 61
2 61 62
2 62 0
2 7 63
2 63 64
2 64 65
2 65 66
2 66 67
2 67 1
4 0 18 68 8
4 18 19 69 68
4 19 20 70 69
4 20 21 71 70
4 21 22 72 71
4 22 2 13 72
4 8 68 73 9
4 68 69 74 73
4 69 70 75 74
4 70 71 76 75
4 71 72 77 76
4 72 13 14 77
4 9 73 78 10
4 73 74 79 78
4 74 75 80 79
4 75 76 81 80
4 76 77 82 81
4 77 14 15 82
4 10 78 83 11
4 78 79 84 83
4 79 80 85 84
4 80 81 86 85
4 81 82 87 86
4 82 15 16 87
4 11 83 88 12
4 83 84 89 88
4 84 85 90 89
4 85 86 91 90
4 86 87 92 91
4 87 16 17 92
4 12 88 23 1
4 88 89 24 23
4 89 90 25 24
4 90 91 26 25
4 91 92 27 26
4 92 17 3 27
4 2 33 93 13
4 33 34 94 93
4 34 35 95 94
4 35 36 96 95
4 36 37 97 96
4 37 4 28 97
4 13 93 98 14
4 93 94 99 98
4 94 95 100 99
4 95 96 101 100
4 96 97 102 101
4 97 28 29 102
4 14 98 103 15
4 98 99 104 103
4 99 100 105 104
4 100 101 106 105
4 101 102 107 106
4 102 29 30 107
4 15 103 108 16
4 103 104 109 108
4 104 105 110 109
4 105 106 111 110
4 106 107 112 111
4 107 30 31 112
4 16 108 113 17
4 108 109 114 113
4 109 110 115 114
4 110 111 116 115
4 111 112 117 116
4 112 31 32 117
4 17 113 38 3
4 113 114 39 38
4 114 115 40 39
4 115 116 41 40
4 116 117 42 41
4 117 32 5 42
4 4 48 118 28
4 48 49 119 118
4 49 50 120 119
4 50 51 121 120
4 51 52 122 121
4 52 6 43 122
4 28 118 123 29
4 118 119 124 123
4 119 120 125 124
4 120 121 126 125
4 121 122 127 126
4 122 43 44 127
4 29 123 128 30
4 123 124 129 128
4 124 125 130 129
4 125 126 131 130
4 126 127 132 131
4 127 44 45 132
4 30 128 133 31
4 128 129 134 133
4 129 130 135 134
4 130 131 136 135
4 131 132 137 136
4 132 45 46 137
4 31 133 138 32
4 133 134 139 138
4 134 135 140 139
4 135 136 141 140
4 136 137 142 141
4 137 46 47 142
4 32 138 53 5
4 138 139 54 53
4 139 140 55 54
4 140 141 56 55
4 141 142 57 56
4 142 47 7 57
4 6 58 143 43
4 58 59 144 143
4 59 60 145 144
4 60 61 146 145
4 61 62 147 146
4 62 0 8 147
4 43 143 148 44
4 143 144 149 148
4 144 145 150 149
4 145 146 151 150
4 146 147 152 151
4 147 8 9 152
4 44 148 153 45
4 148 149 154 153
4 149 150 155 154
4 150 151 156 155
4 151 152 157 156
4 152 9 10 157
4 45 153 158 46
4 153 154 159 158
4 154 155 160 159
4 155 156 161 160
4 156 157 162 161
4 157 10 11 162
4 46 158 163 47
4 158 159 164 163
4 159 160 165 164
4 160 161 166 165
4 161 162 167 166
4 162 11 12 167
4 47 163 63 7
4 163 164 64 63
4 164 165 65 64
4 165 166 66 65
4 166 167 67 66
4 167 12 1 67
4 0 62 168 18
4 62 61 169 168
4 61 60 170 169
4 60 59 171 170
4 59 58 172 171
4 58 6 52 172
4 18 168 173 19
4 168 169 174 173
4 169 170 175 174
4 170 171 176 175
4 171 172 177 176
4 172 52 51 177
4 19 173 178 20
4 173 174 179 178
4 174 175 180 179
4 175 176 181 180
4 176 177 182 181
4 177 51 50 182
4 20 178 183 21
4 178 179 184 183
4 179 180 185 184
4 180 181 186 185
4 181 182 187 186
4 182 50 49 187
4 21 183 188 22
4 183 184 189 188
4 184 185 190 189
4 185 186 191 190
4 186 187 192 191
4 187 49 48 192
4 22 188 33 2
4 188 189 34 33
4 189 190 35 34
4 190 191 36 35
4 191 192 37 36
4 192 48 4 37
4 1 23 193 67
4 67 193 194 66
4 66 194 195 65
4 65 195 196 64
4 64 196 197 63
4 63 197 57 7
4 23 24 198 193
4 193 198 199 194
4 194 199 200 195
4 195 200 201 196
4 196 201 202 197
4 197 202 56 57
4 24 25 203 198
4 198 203 204 199
4 199 204 205 200
4 200 205 206 201
4 201 206 207 202
4 202 207 55 56
4 25 26 208 203
4 203 208 209 204
4 204 209 210 205
4 205 210 211 206
4 206 211 212 207
4 207 212 54 55
4 26 27 213 208
4 208 213 214 209
4 209 214 215 210
4 210 215 216 211
4 211 216 217 212
4 212 217 53 54
4 27 3 38 213
4 213 38 39 214
4 214 39 40 215
4 215 40 41 216
4 216 41 42 217
4 217 42 5 53
8 0 8 68 18 62 147 218 168
8 62 147 218 168 61 146 219 169
8 61 146 219 169 60 145 220 170
8 60 145 220 170 59 144 221 171
8 59 144 221 171 58 143 222 172
8 58 143 222 172 6 43 122 52
8 18 68 69 19 168 218 223 173
8 168 218 223 173 169 219 224 174
8 169 219 224 174 170 220 225 175
8 170 220 225 175 171 221 226 176
8 171 221 226 176 172 222 227 177
8 172 222 227 177 52 122 121 51
8 19 69 70 20 173 223 228 178
8 173 223 228 178 174 224 229 179
8 174 224 229 179 175 225 230 180
8 175 225 230 180 176 226 231 181
8 176 226 231 181 177 227 232 182
8 177 227 232 182 51 121 120 50
8 20 70 71 21 178 228 233 183
8 178 228 233 183 179 229 234 184
8 179 229 234 184 180 230 235 185
8 180 230 235 185 181 231 236 186
8 181 231 236 186 182 232 237 187
8 182 232 237 187 50 120 119 49
8 21 71 72 22 183 233 238 188
8 183 233 238 188 184 234 239 189
8 184 234 239 189 185 235 240 190
8 185 235 240 190 186 236 241 191
8 186 236 241 191 187 237 242 192
8 187 237 242 192 49 119 118 48
8 22 72 13 2 188 238 93 33
8 188 238 93 33 189 239 94 34
8 189 239 94 34 190 240 95 35
8 190 240 95 35 191 241 96 36
8 191 241 96 36 192 242 97 37
8 192 242 97 37 48 118 28 4
8 8 9 73 68 147 152 243 218
8 147 152 243 218 146 151 244 219
8 146 151 244 219 145 150 245 220
8 145 150 245 220 144 149 246 221
8 144 149 246 221 143 148 247 222
8 143 148 247 222 43 44 127 122
8 68 73 74 69 218 243 248 223
8 218 243 248 223 219 244 249 224
8 219 244 249 224 220 245 250 225
8 220 245 250 225 221 246 251 226
8 221 246 251 226 222 247 252 227
8 222 247 252 227 122 127 126 121
8 69 74 75 70 223 248 253 228
8 223 248 253 228 224 249 254 229
8 224 249 254 229 225 250 255 230
8 225 250 255 230 226 251 256 231
8 226 251 256 231 227 252 257 232
8 227 252 257 232 121 126 125 120
8 70 75 76 71 228 253 258 233
8 228 253 258 233 229 254 259 234
8 229 254 259 234 230 255 260 235
8 230 255 260 235 231 256 261 236
8 231 256 261 236 232 257 262 237
8 232 257 262 237 120 125 124 119
8 71 76 77 72 233 258 263 238
8 233 258 263 238 234 259 264 239
8 234 259 264 239 235 260 265 240
8 235 260 265 240 236 261 266 241
8 236 261 266 241 237 262 267 242
8 237 262 267 242 119 124 123 118
8 72 77 14 13 238 263 98 93
8 238 263 98 93 239 264 99 94
8 239 264 99 94 240 265 100 95
8 240 265 100 95 241 266 101 96
8 241 266 101 96 242 267 102 97
8 242 267 102 97 118 123 29 28
8 9 10 78 73 152 157 268 243
8 152 157 268 243 151 156 269 244
8 151 156 269 244 150 155 270 245
8 150 155 270 245 149 154 271 246
8 149 154 271 246 148 153 272 247
8 148 153 272 247 44 45 132 127
8 73 78 79 74 243 268 273 248
8 243 268 273 248 244 269 274 249
8 244 269 274 249 245 270 275 250
8 245 270 275 250 246 271 276 251
8 246 271 276 251 247 272 277 252
8 247 272 277 252 127 132 131 126
8 74 79 80 75 248 273 278 253
8 248 273 278 253 249 274 279 254
8 249 274 279 254 250 275 280 255
8 250 275 280 255 251 276 281 256
8 251 276 281 256 252 277 282 257
8 252 277 282 257 126 131 130 125
8 75 80 81 76 253 278 283 258
8 253 278 283 258 254 279 284 259
8 254 279 284 259 255 280 285 260
8 255 280 285 260 256 281 286 261
8 256 281 286 261 257 282 287 262
8 257 282 287 262 125 130 129 124
8 76 81 82 77 258 283 288 263
8 258 283 288 263 259 284 289 264
8 259 284 289 264 260 285 290 265
8 260 285 290 265 261 286 291 266
8 261 286 291 266 262 287 292 267
8 262 287 292 267 124 129 128 123
8 77 82 15 14 263 288 103 98
8 263 288 103 98 264 289 104 99
8 264 289 104 99 265 290 105 100
8 265 290 105 100 266 291 106 101
8 266 291 106 101 267 292 107 102
8 267 292 107 102 123 128 30 29
8 10 11 83 78 157 162 293 268
8 157 162 293 268 156 161 294 269
8 156 161 294 269 155 160 295 270
8 155 160 295 270 154 159 296 271
8 154 159 296 271 153 158 297 272
8 153 158 297 272 45 46 137 132
8 78 83 84 79 268 293 298 273
8 268 293 298 273 269 294 299 274
8 269 294 299 274 270 295 300 275
8 270 295 300 275 271 296 301 276
8 271 296 301 276 272 297 302 277
8 272 297 302 277 132 137 136 131
8 79 84 85 80 273 298 303 278
8 273 298 303 278 274 299 304 279
8 274 299 304 279 275 300 305 280
8 275 300 305 280 276 301 306 281
8 276 301 306 281 277 302 307 282
8 277 302 307 282 131 136 135 130
8 80 85 86 81 278 303 308 283
8 278 303 308 283 279 304 309 284
8 279 304 309 284 280 305 310 285
8 280 305 310 285 281 306 311 286
8 281 306 311 286 282 307 312 287
8 282 307 312 287 130 135 134 129
8 81 86 87 82 283 308 313 288
8 283 308 313 288 284 309 314 289
8 284 309 314 289 285 310 315 290
8 285 310 315 290 286 311 316 291
8 286 311 316 291 287 312 317 292
8 287 312 317 292 129 134 133 128
8 82 87 16 15 288 313 108 103
8 288 313 108 103 289 314 109 104
8 289 314 109 104 290 315 110 105
8 290 315 110 105 291 316 111 106
8 291 316 111 106 292 317 112 107
8 292 317 112 107 128 133 31 30
8 11 12 88 83 162 167 318 293
8 162 167 318 293 161 166 319 294
8 161 166 319 294 160 165 320 295
8 160 165 320 295 159 164 321 296
8 159 164 321 296 158 163 322 297
8 158 163 322 297 46 47 142 137
8 83 88 89 84 293 318 323 298
8 293 318 323 298 294 319 324 299
8 294 319 324 299 295 320 325 300
8 295 320 325 300 296 321 326 301
8 296 321 326 301 297 322 327 302
8 297 322 327 302 137 142 141 136
8 84 89 90 85 298 323 328 303
8 298 323 328 303 299 324 329 304
8 299 324 329 304 300 325 330 305
8 300 325 330 305 301 326 331 306
8 301 326 331 306 302 327 332 307
8 302 327 332 307 136 141 140 135
8 85 90 91 86 303 328 333 308
8 303 328 333 308 304 329 334 309
8 304 329 334 309 305 330 335 310
8 305 330 335 310 306 331 336 311
8 306 331 336 311 307 332 337 312
8 307 332 337 312 135 140 139 134
8 86 91 92 87 308 333 338 313
8 308 333 338 313 309 334 339 314
8 309 334 339 314 310 335 340 315
8 310 335 340 315 311 336 341 316
8 311 336 341 316 312 337 342 317
8 312 337 342 317 134 139 138 133
8 87 92 17 16 313 338 113 108
8 313 338 113 108 314 339 114 109
8 314 339 114 109 315 340 115 110
8 315 340 115 110 316 341 116 111
8 316 341 116 111 317 342 117 112
8 317 342 117 112 133 138 32 31
8 12 1 23 88 167 67 193 318
8 167 67 193 318 166 66 194 319
8 166 66 194 319 165 65 195 320
8 165 65 195 320 164 64 196 321
8 164 64 196 321 163 63 197 322
8 163 63 197 322 47 7 57 142
8 88 23 24 89 318 193 198 323
8 318 193 198 323 319 194 199 324
8 319 194 199 324 320 195 200 325
8 320 195 200 325 321 196 201 326
8 321 196 201 326 322 197 202 327
8 322 197 202 327 142 57 56 141
8 89 24 25 90 323 198 203 328
8 323 198 203 328 324 199 204 329
8 324 199 204 329 325 200 205 330
8 325 200 205 330 326 201 206 331
8 326 201 206 331 327 202 207 332
8 327 202 207 332 141 56 55 140
8 90 25 26 91 328 203 208 333
8 328 203 208 333 329 204 209 334
8 329 204 209 334 330 205 210 335
8 330 205 210 335 331 206 211 336
8 331 206 211 336 332 207 212 337
8 332 207 212 337 140 55 54 139
8 91 26 27 92 333 208 213 338
8 333 208 213 338 334 209 214 339
8 334 209 214 339 335 210 215 340
8 335 210 215 340 336 211 216 341
8 336 211 216 341 337 212 217 342
8 337 212 217 342 139 54 53 138
8 92 27 3 17 338 213 38 113
8 338 213 38 113 339 214 39 114
8 339 214 39 114 340 215 40 115
8 340 215 40 115 341 216 41 116
8 341 216 41 116 342 217 42 117
8 342 217 42 117 138 53 5 32

CELL_TYPES 512
1
1
1
1
1
1
1
1
3
3
3
3
3
3
3
3
3
3
3
3
3
3
3
3
3
3
3
3
3
3
3
3
3
3
3
3
3
3
3
3
3
3
3
3
3
3
3
3
3
3
3
3
3
3
3
3
3
3
3
3
3
3
3
3
3
3
3
3
3
3
3
3
3
3
3
3
3
3
3
3
9
9
9
9
9
9
9
9
9
9
9
9
9
9
9
9
9
9
9
9
9
9
9
9
9
9
9
9
9
9
9
9
9
9
9
9
9
9
9
9
9
9
9
9
9
9
9
9
9
9
9
9
9
9
9
9
9
9
9
9
9
9
9
9
9
9
9
9
9
9
9
9
9
9
9
9
9
9
9
9
9
9
9
9
9
9
9
9
9
9
9
9
9
9
9
9
9
9
9
9
9
9
9
9
9
9
9
9
9
9
9
9
9
9
9
9
9
9
9
9
9
9
9
9
9
9
9
9
9
9
9
9
9
9
9
9
9
9
9
9
9
9
9
9
9
9
9
9
9
9
9
9
9
9
9
9
9
9
9
9
9
9
9
9
9
9
9
9
9
9
9
9
9
9
9
9
9
9
9
9
9
9
9
9
9
9
9
9
9
9
9
9
9
9
9
9
9
9
9
9
9
9
9
9
9
9
9
9
9
9
9
9
9
9
9
9
12
12
12
12
12
12
12
12
12
12
12
12
12
12
12
12
12
12
12
12
12
12
12
12
12
12
12
12
12
12
12
12
12
12
12
12
12
12
12
12
12
12
12
12
12
12
12
12
12
12
12
12
12
12
12
12
12
12
12
12
12
12
12
12
12
12
12
12
12
12
12
12
12
12
12
12
12
12
12
12
12
12
12
12
12
12
12
12
12
12
12
12
12
12
12
12
12
12
12
12
12
12
12
12
12
12
12
12
12
12
12
12
12
12
12
12
12
12
12
12
12
12
12
12
12
12
12
12
12
12
12
12
12
12
12
12
12
12
12
12
12
12
12
12
12
12
12
12
12
12
12
12
12
12
12
12
12
12
12
12
12
12
12
12
12
12
12
12
12
12
12
12
12
12
12
12
12
12
12
12
12
12
12
12
12
12
12
12
12
12
12
12
12
12
12
12
12
12
12
12
12
12
12
12
12
12
12
12
12
12
12
12
12
12
12
12

CELL_DATA 512
SCALARS CellEntityIds int 1
LOOKUP_TABLE default
-1
-1
-1
-1
-1
-1
-1
-1
1
1
1
1
1
1
5
5
5
5
5
5
6
6
6
6
6
6
7
7
7
7
7
7
8
8
8
8
8
8
9
9
9
9
9
9
10
10
10
10
10
10
11
11
11
11
11
11
12
12
12
12
12
12
2
2
2
2
2
2
3
3
3
3
3
3
4
4
4
4
4
4
13
13
13
13
13
13
13
13
13
13
13
13
13
13
13
13
13
13
13
13
13
13
13
13
13
13
13
13
13
13
13
13
13
13
13
13
14
14
14
14
14
14
14
14
14
14
14
14
14
14
14
14
14
14
14
14
14
14
14
14
14
14
14
14
14
14
14
14
14
14
14
14
15
15
15
15
15
15
15
15
15
15
15
15
15
15
15
15
15
15
15
15
15
15
15
15
15
15
15
15
15
15
15
15
15
15
15
15
16
16
16
16
16
16
16
16
16
16
16
16
16
16
16
16
16
16
16
16
16
16
16
16
16
16
16
16
16
16
16
16
16
16
16
16
17
17
17
17
17
17
17
17
17
17
17
17
17
17
17
17
17
17
17
17
17
17
17
17
17
17
17
17
17
17
17
17
17
17
17
17
18
18
18
18
18
18
18
18
18
18
18
18
18
18
18
18
18
18
18
18
18
18
18
18
18
18
18
18
18
18
18
18
18
18
18
18
19
19
19
19
19
19
19
19
19
19
19
19
19
19
19
19
19
19
19
19
19
19
19
19
19
19
19
19
19
19
19
19
19
19
19
19
19
19
19
19
19
19
19
19
19
19
19
19
19
19
19
19
19
19
19
19
19
19
19
19
19
19
19
19
19
19
19
19
19
19
19
19
19
19
19
19
19
19
19
19
19
19
19
19
19
19
19
19
19
19
19
19
19
19
19
19
19
19
19
19
19
19
19
19
19
19
19
19
19
19
19
19
19
19
19
19
19
19
19
19
19
19
19
19
19
19
19
19
19
19
19
19
19
19
19
19
19
19
19
19
19
19
19
19
19
19
19
19
19
19
19
19
19
19
19
19
19
19
19
19
19
19
19
19
19
19
19
19
19
19
19
19
19
19
19
19
19
19
19
19
19
19
19
19
19
19
19
19
19
19
19
19
19
19
19
19
19
19
19
19
19
19
19
19
19
19
19
19
19
19
19
19
19
19
19
19
