# vtk DataFile Version 2.0
shape2mesh, Created by Gmsh 4.13.1 
ASCII
DATASET UNSTRUCTURED_GRID
POINTS 343 double
45 -75 0
66.6346153846154 -70.67307692307692 12.7381166341267
55 -75 1
63.06074623714693 -73.38785075257061 3.74603887804223
55 -65 1
60.17613085253154 -63.96477382949369 2.047623326825338
45 -65 0
63.75000000000002 -61.25 11.03970108290981
45.21911899193808 -74.95617620161238 2.554140971091766
46.93232585468673 -74.61353482906264 7.354354975357368
52.21153846153857 -73.55769230769228 12.73811663412677
59.42307702761401 -72.11538459447719 14.7087101353638
64.35605951599518 -71.12878809680096 13.82166646586576
55.24331572871881 -74.95133685425623 1.836188073589549
56.1343989499194 -74.77312021001612 3.317477065860845
58.25305392945464 -74.34938921410907 4.746038878042251
60.78827301822893 -73.8423453963542 4.902903371206695
62.37346426972278 -73.52530714605544 4.265202028846252
45.67764365394976 -74.43028911535852 0.6038596280335896
47.51060040034349 -73.83540302628963 1.196875156969659
50.39913649185235 -75.26032015120464 -0.3280999061304858
53.28959171946177 -76.21406444509017 -0.8726599446514076
54.49749183558561 -75.51162029384288 0.2645520379428016
66.68335099707011 -70.22914764673445 11.7639659774668
66.20461177023978 -70.09660075231037 9.809860713119511
64.04300314229657 -72.5315468211158 8.361391076049728
62.57720648816948 -74.35654149134864 6.341059455038138
62.80604411285053 -73.84990983838989 4.62739108593634
55.21409986312707 -64.95718002737458 1.495635944110646
55.87675550262784 -64.82464889947443 2.33689640247986
57.29151546791617 -64.54169690641676 3.047623326825347
58.86519608121372 -64.22696078375725 2.941742019824855
59.79265633425675 -64.04146873314865 2.422313166730818
55 -74.3287117819556 0.3718552814576365
55 -72.67508872963717 -0.2246965589986154
55 -69.98398521132182 1.037947997428178
55 -67.29316618267889 2.252703788238549
55 -65.66564400831432 1.629529829085143
62.33368002582517 -72.86197577679056 3.946098602425881
61.35007691464897 -71.40507334670738 3.963520611863174
61.64604462874377 -68.65477628557306 2.875137127105648
61.9014268950414 -65.9128808036706 1.810746343324717
60.90274517307415 -64.48509497369947 1.845912425812306
45.18990312634634 -64.96201937473073 2.21358884161287
46.67468240739517 -64.66506351852097 6.373774311976391
51.25000000000012 -63.74999999999998 11.03970108290988
57.50000009059885 -62.49999998188023 12.74754878398196
61.77525158052916 -61.64494968389417 11.97877760375032
54.49749183558556 -64.48837970615706 0.2645520379427253
53.28959171946164 -63.7859355549098 -0.8726599446514789
50.39913649185218 -64.73967984879546 -0.328099906130375
47.51060040034335 -66.16459697371037 1.196875156969671
45.67764365394968 -65.56971088464142 0.6038596280335382
59.62626317409497 -63.46262543845518 2.755186762043342
58.99216930830974 -62.64542003714017 4.230246717077254
61.00820305506331 -62.61786653615323 6.574549166212716
63.99187925507276 -62.8683412027645 8.507039084112701
64.12741496897866 -61.87975662163565 10.2590715914845
44.30263827703239 -65.67601749894442 -0.697361722967609
43.74326317183679 -67.56552363172352 -1.256736828163209
45.99999999999999 -70 1
43.74326317183679 -72.43447636827648 -1.256736828163209
44.30263827703237 -74.32398250105557 -0.6973617229676312
63.66124850460616 -61.80429545342966 12.0954028052596
63.97868857369969 -63.51843855135094 13.17103270667447
65.59920777560848 -66.08015844487832 10.53970108290981
65.38319417078226 -68.10649016848737 13.99798321126463
66.15585379367668 -69.95333939772669 13.56418662985613
45.98802205438481 -74.3682134352715 3.014038492440892
47.89344143120403 -73.75883482011753 3.265677147087082
50.48427824775927 -75.24329180002326 1.320547184155646
53.2425708057905 -76.22346862782443 0.3245648615017975
54.6244137279737 -75.48623591536528 1.214901671704331
47.80406259481228 -74.00500532718601 7.489205876159925
49.67631762387374 -73.40225958158358 7.045758040457049
51.48177904377107 -75.0437916408209 4.448594189703503
53.75746092169821 -76.1204906046429 2.653351429443369
55.34922328975384 -75.34127400300923 2.977103836214063
53.02141429599139 -72.9615349869502 12.36782560550042
54.4195346501298 -72.45361617633235 11.00673587008921
54.7613420476922 -74.38787904003667 8.033291169919284
55.89141690205769 -75.69369940857098 5.468399510386774
57.41678235979001 -74.92776218900201 4.891943123879166
59.93171353612857 -71.57947513892275 13.93249636207733
60.46931025600958 -71.24366105515638 12.01846763225255
59.35906922608176 -73.46833360435878 9.465474210366608
59.11966787585683 -75.04804921381115 6.818194318996852
60.14616824382836 -74.38188501219433 5.495990166625546
64.56866076437075 -70.65208569327432 12.88573196396553
64.42926503526718 -70.45167009930488 10.88431003666512
62.5529866562937 -72.82955011831636 9.006853095032312
61.45794825897615 -74.58039313718729 6.705474189211081
61.9737595769461 -74.01636674557078 5.074059317597026
55.13439649132339 -74.30183248369093 1.194725423500204
55.02798678863382 -72.66949137191041 0.5509220626241307
55.23512264299841 -69.93696068272214 1.702738103771509
55.4341050179698 -67.20634517908493 2.807402605763432
55.32323846164768 -65.6009963159848 2.138270447032692
55.80913036645332 -74.16688570866495 2.707662555456782
55.47404225235344 -72.5802802791665 2.028882425822982
56.02377015198341 -69.77923118092515 2.858480284892824
56.55002598252504 -66.98316098617387 3.646633152716586
56.20255777303616 -65.42513245370708 2.947356993513893
57.65508160621836 -73.79769546071194 4.31795388388354
56.98948292818029 -72.27719214400113 3.73882405286458
57.80297054964343 -69.42339110139314 3.913085124533843
58.57581801375701 -66.57800257992747 4.063450131563272
57.89012132532141 -65.08761974325004 3.475442254897452
60.04323255666785 -73.32006527062204 4.771252924872762
59.14026091442557 -71.84703654675207 4.44695076720042
59.86086585560474 -69.01181204020088 3.91918193678012
60.53456670819054 -66.1862528410408 3.391468899721957
59.61050933045078 -64.74354214222416 3.072285545550578
61.6214172209122 -73.00442833777316 4.35632920687587
60.64495950011726 -71.54609682961372 4.255617592252626
61.11389416351919 -68.76120637861798 3.327827271341505
61.53877541185406 -65.98541110030808 2.416468300386576
60.54452302333726 -64.55673940364686 2.329672087893549
54.59220837643411 -64.46943639798734 0.8395028661148007
53.20626095146912 -63.80260170850831 -0.09867771439716932
50.45354128645771 -64.72879888987434 0.9622645383090811
47.87103050734265 -66.09251095231053 3.004446213484568
45.96213510811934 -65.51281259380748 2.71228961395235
55.06521671922019 -64.37483472943013 1.896186179405905
53.43725832463306 -63.75640223387552 1.434673142271627
51.21072164024825 -64.57736281911626 3.416960545010774
49.47868433238448 -65.77098018730219 6.293573631686634
47.57577560277635 -65.1900844948761 6.620354708218359
56.35685538020473 -64.1165069972332 3.019738799986072
54.69640450877097 -63.50457299704792 3.357586772425805
53.74974201861439 -64.06955874344301 6.246449260082375
53.68195714507404 -64.93032562476427 9.703914241082408
52.16943561996082 -64.27135249143919 10.86293121951808
58.02631426929344 -63.78261521941549 3.334154825870286
56.72964307196095 -63.09792528440995 4.380837714055595
57.33586915326231 -63.35233331651344 7.40220689507926
58.99415523520645 -63.86788600673776 10.51409879582625
58.22775617171745 -63.05968838108787 12.19479400437963
59.12887289862097 -63.56210349354997 3.042598587250602
58.25048689269892 -62.79375652026233 4.415108158346385
59.83781145842973 -62.85194485547996 7.068016011469155
62.44957732207551 -63.17680158936396 9.470665732890648
62.28191570330551 -62.24885647477026 11.25282587063651
44.38595945031409 -65.65935326428809 1.668587542126024
43.74502782315795 -67.56517070145929 1.277306328776637
46.36017919108581 -69.92796416178284 3.198396591505152
43.75925289003033 -72.43127842463777 1.443119551053157
44.41122522862845 -74.30226511073636 1.963095831838793
45.74266346100854 -65.38801246214919 6.178040020951588
45.02977370253581 -67.30822152558372 6.153144491160505
48.16497273908566 -69.5670054521829 7.239799719384767
45.15521907931032 -72.15208518678178 6.630584581598475
45.96547261252859 -73.99141563395632 7.026042746818135
50.36070502118653 -64.46440415011358 11.39804108229206
49.77691784821138 -66.35879269644859 11.91429587851134
53.09920777560853 -68.58015844487828 11.53970108290985
50.24508638057223 -71.13411172652938 12.74124638310149
51.19224011754335 -72.94606213295339 12.86682490688855
56.91936242734459 -63.15267266888196 13.5639461577237
56.71270215213228 -64.97163583566442 14.48302122047591
59.48058076628971 -67.30388384674204 12.74754877673407
57.64903922364046 -69.65332115791574 15.43790141333916
58.58243263211199 -71.46802363003964 15.25995163074802
61.50965524834167 -62.23461410468256 12.98445193641707
61.64431216494555 -63.98531383310177 14.0394175368793
63.69669601158682 -66.46066079768262 11.63675747730802
62.90089535093601 -68.60294993245662 14.9367114137153
63.74152891864974 -70.43620437273209 14.57817577465257
45.01717848731873 -73.84834846526171 0.05001760524415513
44.49791056989114 -72.14696829280905 -0.4685067944843709
46.60473064732726 -69.99945562900662 1.447025336402038
44.52815549796714 -67.85108336118431 -0.4406739718236462
45.03303081497907 -66.15109452085383 0.0618516715634882
46.87192707129631 -73.35181297651216 1.198339021887386
46.36630583960782 -71.86399567919908 1.13406942483839
48.31004015184286 -69.9978127044252 1.688302055884811
46.4517740271225 -68.12987733893429 1.225741166074618
46.91439704349739 -66.64696457310828 1.251337851246527
49.89697234618253 -74.54418259661122 0.06225792893088859
49.43876570235097 -72.70247607076587 0.6598668308996547
50.78553609930205 -69.99112512167247 0.6740050172922887
49.5803683761966 -67.28034085524607 1.114361416645919
49.98228568490194 -65.45266654546027 0.2122881734389127
53.11185826126848 -75.34253437103433 -1.390079704472624
52.90847681652725 -73.27724177120626 -1.5099724669931
[...]
CELL_DATA 512
SCALARS CellEntityIds int 1
LOOKUP_TABLE default
-1
-1
-1
-1
-1
-1
-1
-1
1
1
1
1
1
1
5
5
5
5
5
5
6
6
6
6
6
6
7
7
7
7
7
7
8
8
8
8
8
8
9
9
9
9
9
9
10
10
10
10
10
10
11
11
11
11
11
11
12
12
12
12
12
12
2
2
2
2
2
2
3
3
3
3
3
3
4
4
4
4
4
4
13
13
13
13
13
13
13
13
13
13
13
13
13
13
13
13
13
13
13
13
13
13
13
13
13
13
13
13
13
13
13
13
13
13
13
13
14
14
14
14
14
14
14
14
14
14
14
14
14
14
14
14
14
14
14
14
14
14
14
14
14
14
14
14
14
14
14
14
14
14
14
14
15
15
15
15
15
15
15
15
15
15
15
15
15
15
15
15
15
15
15
15
15
15
15
15
15
15
15
15
15
15
15
15
15
15
15
15
16
16
16
16
16
16
16
16
16
16
16
16
16
16
16
16
16
16
16
16
16
16
16
16
16
16
16
16
16
16
16
16
16
16
16
16
17
17
17
17
17
17
17
17
17
17
17
17
17
17
17
17
17
17
17
17
17
17
17
17
17
17
17
17
17
17
17
17
17
17
17
17
18
18
18
18
18
18
18
18
18
18
18
18
18
18
18
18
18
18
18
18
18
18
18
18
18
18
18
18
18
18
18
18
18
18
18
18
19
19
19
19
19
19
19
19
19
19
19
19
19
19
19
19
19
19
19
19
19
19
19
19
19
19
19
19
19
19
19
19
19
19
19
19
19
19
19
19
19
19
19
19
19
19
19
19
19
19
19
19
19
19
19
19
19
19
19
19
19
19
19
19
19
19
19
19
19
19
19
19
19
19
19
19
19
19
19
19
19
19
19
19
19
19
19
19
19
19
19
19
19
19
19
19
19
19
19
19
19
19
19
19
19
19
19
19
19
19
19
19
19
19
19
19
19
19
19
19
19
19
19
19
19
19
19
19
19
19
19
19
19
19
19
19
19
19
19
19
19
19
19
19
19
19
19
19
19
19
19
19
19
19
19
19
19
19
19
19
19
19
19
19
19
19
19
19
19
19
19
19
19
19
19
19
19
19
19
19
19
19
19
19
19
19
19
19
19
19
19
19
19
19
19
19
19
19
19
19
19
19
19
19
19
19
19
19
19
19
19
19
19
19
19
19
