# vtk DataFile Version 2.0
shape2mesh, Created by Gmsh 4.13.1 
ASCII
DATASET UNSTRUCTURED_GRID
POINTS 252 double
0 -75 0
2 -75 10
10 -75 0
12 -75 10
10 -65 0
12 -65 10
0 -65 0
2 -65 10
0.3333333333333343 -75 1.666666666666672
0.6666666666666686 -75 3.333333333333343
1.000000000000003 -75 5.000000000000015
1.333333333333337 -75 6.666666666666687
1.666666666666671 -75 8.333333333333357
10.33333333333333 -75 1.666666666666672
10.66666666666667 -75 3.333333333333343
11 -75 5.000000000000015
11.33333333333334 -75 6.666666666666687
11.66666666666667 -75 8.333333333333357
2 -75 0
4 -75 0
6 -75 0
8 -75 0
4 -75 10
6 -75 10
8 -75 10
10 -75 10
10.33333333333333 -65 1.666666666666672
10.66666666666667 -65 3.333333333333343
11 -65 5.000000000000015
11.33333333333334 -65 6.666666666666687
11.66666666666667 -65 8.333333333333357
10 -73 0
10 -71 0
10 -69 0
10 -67 0
12 -73 10
12 -71 10
12 -69 10
12 -67 10
0.3333333333333343 -65 1.666666666666672
0.6666666666666686 -65 3.333333333333343
1.000000000000003 -65 5.000000000000015
1.333333333333337 -65 6.666666666666687
1.666666666666671 -65 8.333333333333357
8 -65 0
6 -65 0
4 -65 0
2 -65 0
10 -65 10
8 -65 10
6 -65 10
4 -65 10
0 -67 0
0 -69 0
0 -71 0
0 -73 0
2 -67 10
2 -69 10
2 -71 10
2 -73 10
2.333333333333333 -75 1.666666666666667
4.333333333333332 -75 1.666666666666667
6.333333333333333 -75 1.666666666666666
8.333333333333332 -75 1.666666666666667
2.666666666666667 -75 3.333333333333333
4.666666666666665 -75 3.333333333333333
6.666666666666665 -75 3.333333333333332
8.666666666666666 -75 3.333333333333333
3 -75 5.000000000000001
5.000000000000001 -75 5.000000000000002
7.000000000000002 -75 5.000000000000002
9.000000000000002 -75 5.000000000000002
3.333333333333334 -75 6.666666666666668
5.333333333333334 -75 6.666666666666667
7.333333333333334 -75 6.666666666666667
9.333333333333334 -75 6.666666666666668
3.666666666666667 -75 8.333333333333332
5.666666666666666 -75 8.333333333333332
7.666666666666666 -75 8.333333333333332
9.666666666666666 -75 8.333333333333332
10.33333333333333 -73 1.666666666666667
10.33333333333333 -71 1.666666666666667
10.33333333333333 -69 1.666666666666667
10.33333333333333 -67 1.666666666666667
10.66666666666667 -73 3.333333333333333
10.66666666666667 -71 3.333333333333333
10.66666666666667 -69 3.333333333333333
10.66666666666667 -67 3.333333333333333
11 -73 5.000000000000002
11 -71 5.000000000000002
11 -69 5.000000000000002
11 -67 5.000000000000002
11.33333333333333 -73 6.666666666666667
11.33333333333333 -71 6.666666666666667
11.33333333333333 -69 6.666666666666667
11.33333333333333 -67 6.666666666666667
11.66666666666667 -73 8.333333333333334
11.66666666666667 -71 8.33333333333333
11.66666666666667 -69 8.33333333333333
11.66666666666667 -67 8.333333333333332
8.333333333333334 -65 1.666666666666667
6.333333333333332 -65 1.666666666666667
4.333333333333332 -65 1.666666666666666
2.333333333333332 -65 1.666666666666667
8.666666666666666 -65 3.333333333333333
6.666666666666667 -65 3.333333333333333
4.666666666666667 -65 3.333333333333332
2.666666666666666 -65 3.333333333333333
9 -65 5.000000000000001
7 -65 5.000000000000002
5 -65 5.000000000000002
3.000000000000002 -65 5.000000000000002
9.333333333333334 -65 6.666666666666668
7.333333333333334 -65 6.666666666666667
5.333333333333334 -65 6.666666666666667
3.333333333333334 -65 6.666666666666668
9.666666666666666 -65 8.333333333333332
7.666666666666667 -65 8.333333333333332
5.666666666666667 -65 8.333333333333332
3.666666666666668 -65 8.333333333333332
0.3333333333333334 -67 1.666666666666667
0.3333333333333333 -69 1.666666666666667
0.3333333333333333 -71 1.666666666666667
0.3333333333333334 -73 1.666666666666667
0.6666666666666667 -67 3.333333333333333
0.6666666666666666 -69 3.333333333333333
0.6666666666666666 -71 3.333333333333333
0.6666666666666667 -73 3.333333333333333
1 -67 5.000000000000002
1 -69 5
1 -71 5.000000000000002
1 -73 5.000000000000002
1.333333333333333 -67 6.666666666666667
1.333333333333333 -69 6.666666666666666
1.333333333333333 -71 6.666666666666666
1.333333333333333 -73 6.666666666666667
1.666666666666667 -67 8.333333333333334
1.666666666666666 -69 8.33333333333333
1.666666666666666 -71 8.33333333333333
1.666666666666667 -73 8.333333333333332
2 -73 0
2 -71 0
2 -69 0
2 -67 0
4 -73 0
4 -71 0
4 -69 0
4 -67 0
6.000000000000001 -73 0
6 -71 0
6 -69 0
6.000000000000001 -67 0
7.999999999999999 -73 0
8 -71 0
7.999999999999999 -69 0
7.999999999999999 -67 0
4 -73 10
4 -71 10
4 -69 10
4 -67 10
6 -73 10
6 -71 10
6 -69 10
6 -67 10
8 -73 10
8 -71 10
8 -69 10
8 -67 10
10 -73 10
10 -71 10
10 -69 10
10 -67 10
2.333333333333333 -73.00000000000001 1.666666666666662
2.333333333333332 -71.00000000000001 1.666666666666662
2.333333333333331 -69 1.666666666666662
2.333333333333331 -67 1.666666666666662
4.333333333333332 -73 1.666666666666661
4.333333333333333 -71.00000000000001 1.666666666666661
4.333333333333332 -69 1.666666666666661
4.333333333333332 -67.00000000000001 1.666666666666662
6.333333333333332 -73 1.666666666666661
6.333333333333332 -71.00000000000001 1.666666666666661
6.333333333333332 -69 1.666666666666662
6.333333333333332 -67.00000000000001 1.666666666666662
8.333333333333337 -72.99999999999999 1.666666666666661
8.33333333333333 -71.00000000000001 1.666666666666662
8.333333333333332 -69 1.666666666666662
8.333333333333336 -67 1.666666666666662
2.666666666666667 -73.00000000000001 3.333333333333324
2.666666666666664 -71 3.333333333333324
2.666666666666664 -69 3.333333333333324
2.666666666666664 -66.99999999999999 3.333333333333324
4.666666666666664 -73 3.333333333333323
4.666666666666666 -71.00000000000001 3.333333333333321
4.666666666666668 -69 3.333333333333321
4.666666666666668 -66.99999999999999 3.333333333333323
6.666666666666664 -73 3.333333333333322
6.666666666666664 -71.00000000000001 3.333333333333323
6.666666666666664 -69 3.333333333333324
6.666666666666664 -67 3.333333333333323
8.666666666666666 -72.99999999999999 3.333333333333322
8.666666666666664 -71.00000000000001 3.333333333333324
8.666666666666668 -69 3.333333333333324
8.666666666666666 -67 3.333333333333325
2.999999999999997 -73 4.999999999999987
3 -70.99999999999999 4.999999999999989
2.999999999999999 -69 4.999999999999985
3 -66.99999999999999 4.999999999999989
4.999999999999996 -73 4.999999999999987
4.999999999999997 -71 4.999999999999986
4.999999999999997 -69 4.999999999999985
4.999999999999996 -67 4.999999999999987
6.999999999999996 -73 4.999999999999988
6.999999999999997 -71.00000000000001 4.999999999999989
6.999999999999996 -69 4.999999999999985
6.999999999999996 -67 4.999999999999989
8.999999999999995 -72.99999999999999 4.999999999999988
9 -71.00000000000001 4.999999999999988
8.999999999999993 -69 4.999999999999989
8.999999999999993 -67 4.999999999999989
3.33333333333333 -73 6.666666666666648
3.33333333333333 -70.99999999999999 6.666666666666648
3.33333333333333 -68.99999999999999 6.666666666666648
3.33333333333333 -66.99999999999997 6.666666666666652
5.333333333333331 -73 6.666666666666646
5.333333333333329 -70.99999999999999 6.66666666666665
5.333333333333329 -69 6.66666666666665
5.333333333333333 -67 6.66666666666665
7.333333333333332 -73 6.666666666666645
7.333333333333329 -71 6.666666666666649
7.333333333333332 -68.99999999999999 6.666666666666648
7.333333333333329 -67 6.66666666666665
9.333333333333332 -72.99999999999999 6.666666666666648
9.333333333333332 -70.99999999999999 6.666666666666648
9.333333333333332 -68.99999999999999 6.666666666666648
9.333333333333332 -67 6.666666666666649
3.666666666666662 -72.99999999999997 8.333333333333306
3.66666666666666 -70.99999999999999 8.3333333333333
3.666666666666663 -69 8.3333333333333
3.666666666666663 -66.99999999999997 8.333333333333307
5.666666666666663 -72.99999999999999 8.333333333333309
5.666666666666662 -71 8.333333333333304
5.666666666666662 -69 8.333333333333304
5.666666666666664 -67 8.333333333333307
7.666666666666663 -72.99999999999999 8.333333333333307
7.666666666666662 -71.00000000000001 8.333333333333304
7.666666666666656 -69.00000000000001 8.333333333333304
7.666666666666657 -67 8.333333333333307
9.666666666666661 -72.99999999999997 8.333333333333307
9.666666666666664 -70.99999999999999 8.333333333333304
9.666666666666664 -69 8.333333333333304
9.666666666666663 -67 8.333333333333307

CELLS 1312 6068
1 0
1 1
1 2
1 3
1 4
1 5
1 6
1 7
2 0 8
2 8 9
2 9 10
2 10 11
2 11 12
2 12 1
2 2 13
2 13 14
2 14 15
2 15 16
2 16 17
2 17 3
2 0 18
2 18 19
2 19 20
2 20 21
2 21 2
2 1 22
2 22 23
2 23 24
2 24 25
2 25 3
2 4 26
2 26 27
2 27 28
2 28 29
2 29 30
2 30 5
2 2 31
2 31 32
2 32 33
2 33 34
2 34 4
2 3 35
2 35 36
2 36 37
2 37 38
2 38 5
2 6 39
2 39 40
2 40 41
2 41 42
2 42 43
2 43 7
2 4 44
2 44 45
2 45 46
2 46 47
2 47 6
2 5 48
2 48 49
2 49 50
2 50 51
2 51 7
2 6 52
2 52 53
2 53 54
2 54 55
2 55 0
2 7 56
2 56 57
2 57 58
2 58 59
2 59 1
3 0 18 8
3 18 60 8
3 18 19 60
3 19 61 60
3 19 20 61
3 20 62 61
3 20 21 62
3 21 63 62
3 21 2 63
3 2 13 63
3 8 60 9
3 60 64 9
3 60 61 64
3 61 65 64
3 61 62 65
3 62 66 65
3 62 63 66
3 63 67 66
3 63 13 67
3 13 14 67
3 9 64 10
3 64 68 10
3 64 65 68
3 65 69 68
3 65 66 69
3 66 70 69
3 66 67 70
3 67 71 70
3 67 14 71
3 14 15 71
3 10 68 11
3 68 72 11
3 68 69 72
3 69 73 72
3 69 70 73
3 70 74 73
3 70 71 74
3 71 75 74
3 71 15 75
3 15 16 75
3 11 72 12
3 72 76 12
3 72 73 76
3 73 77 76
3 73 74 77
3 74 78 77
3 74 75 78
3 75 79 78
3 75 16 79
3 16 17 79
3 12 76 1
3 76 22 1
3 76 77 22
3 77 23 22
3 77 78 23
3 78 24 23
3 78 79 24
3 79 25 24
3 79 17 25
3 17 3 25
3 2 31 13
3 31 80 13
3 31 32 80
3 32 81 80
3 32 33 81
3 33 82 81
3 33 34 82
3 34 83 82
3 34 4 83
3 4 26 83
3 13 80 14
3 80 84 14
3 80 81 84
3 81 85 84
3 81 82 85
3 82 86 85
3 82 83 86
3 83 87 86
3 83 26 87
3 26 27 87
3 14 84 15
3 84 88 15
3 84 85 88
3 85 89 88
3 85 86 89
3 86 90 89
3 86 87 90
3 87 91 90
3 87 27 91
3 27 28 91
3 15 88 16
3 88 92 16
3 88 89 92
3 89 93 92
3 89 90 93
3 90 94 93
3 90 91 94
3 91 95 94
3 91 28 95
3 28 29 95
3 16 92 17
3 92 96 17
3 92 93 96
3 93 97 96
3 93 94 97
3 94 98 97
3 94 95 98
3 95 99 98
[...]
CELL_DATA 1312
SCALARS CellEntityIds int 1
LOOKUP_TABLE default
-1
-1
-1
-1
-1
-1
-1
-1
1
1
1
1
1
1
5
5
5
5
5
5
6
6
6
6
6
7
7
7
7
7
8
8
8
8
8
8
9
9
9
9
9
10
10
10
10
10
11
11
11
11
11
11
12
12
12
12
12
2
2
2
2
2
3
3
3
3
3
4
4
4
4
4
13
13
13
13
13
13
13
13
13
13
13
13
13
13
13
13
13
13
13
13
13
13
13
13
13
13
13
13
13
13
13
13
13
13
13
13
13
13
13
13
13
13
13
13
13
13
13
13
13
13
13
13
13
13
13
13
13
13
13
13
14
14
14
14
14
14
14
14
14
14
14
14
14
14
14
14
14
14
14
14
14
14
14
14
14
14
14
14
14
14
14
14
14
14
14
14
14
14
14
14
14
14
14
14
14
14
14
14
14
14
14
14
14
14
14
14
14
14
14
14
15
15
15
15
15
15
15
15
15
15
15
15
15
15
15
15
15
15
15
15
15
15
15
15
15
15
15
15
15
15
15
15
15
15
15
15
15
15
15
15
15
15
15
15
15
15
15
15
15
15
15
15
15
15
15
15
15
15
15
15
16
16
16
16
16
16
16
16
16
16
16
16
16
16
16
16
16
16
16
16
16
16
16
16
16
16
16
16
16
16
16
16
16
16
16
16
16
16
16
16
16
16
16
16
16
16
16
16
16
16
16
16
16
16
16
16
16
16
16
16
17
17
17
17
17
17
17
17
17
17
17
17
17
17
17
17
17
17
17
17
17
17
17
17
17
17
17
17
17
17
17
17
17
17
17
17
17
17
17
17
17
17
17
17
17
17
17
17
17
17
18
18
18
18
18
18
18
18
18
18
18
18
18
18
18
18
18
18
18
18
18
18
18
18
18
18
18
18
18
18
18
18
18
18
18
18
18
18
18
18
18
18
18
18
18
18
18
18
18
18
19
19
19
19
19
19
19
19
19
19
19
19
19
19
19
19
19
19
19
19
19
19
19
19
19
19
19
19
19
19
19
19
19
19
19
19
19
19
19
19
19
19
19
19
19
19
19
19
19
19
19
19
19
19
19
19
19
19
19
19
19
19
19
19
19
19
19
19
19
19
19
19
19
19
19
19
19
19
19
19
19
19
19
19
19
19
19
19
19
19
19
19
19
19
19
19
19
19
19
19
19
19
19
19
19
19
19
19
19
19
19
19
19
19
19
19
19
19
19
19
19
19
19
19
19
19
19
19
19
19
19
19
19
19
19
19
19
19
19
19
19
19
19
19
19
19
19
19
19
19
19
19
19
19
19
19
19
19
19
19
19
19
19
19
19
19
19
19
19
19
19
19
19
19
19
19
19
19
19
19
19
19
19
19
19
19
19
19
19
19
19
19
19
19
19
19
19
19
19
19
19
19
19
19
19
19
19
19
19
19
19
19
19
19
19
19
19
19
19
19
19
19
19
19
19
19
19
19
19
19
19
19
19
19
19
19
19
19
19
19
19
19
19
19
19
19
19
19
19
19
19
19
19
19
19
19
19
19
19
19
19
19
19
19
19
19
19
19
19
19
19
19
19
19
19
19
19
19
19
19
19
19
19
19
19
19
19
19
19
19
19
19
19
19
19
19
19
19
19
19
19
19
19
19
19
19
19
19
19
19
19
19
19
19
19
19
19
19
19
19
19
19
19
19
19
19
19
19
19
19
19
19
19
19
19
19
19
19
19
19
19
19
19
19
19
19
19
19
19
19
19
19
19
19
19
19
19
19
19
19
19
19
19
19
19
19
19
19
19
19
19
19
19
19
19
19
19
19
19
19
19
19
19
19
19
19
19
19
19
19
19
19
19
19
19
19
19
19
19
19
19
19
19
19
19
19
19
19
19
19
19
19
19
19
19
19
19
19
19
19
19
19
19
19
19
19
19
19
19
19
19
19
19
19
19
19
19
19
19
19
19
19
19
19
19
19
19
19
19
19
19
19
19
19
19
19
19
19
19
19
19
19
19
19
19
19
19
19
19
19
19
19
19
19
19
19
19
19
19
19
19
19
19
19
19
19
19
19
19
19
19
19
19
19
19
19
19
19
19
19
19
19
19
19
19
19
19
19
19
19
19
19
19
19
19
19
19
19
19
19
19
19
19
19
19
19
19
19
19
19
19
19
19
19
19
19
19
19
19
19
19
19
19
19
19
19
19
19
19
19
19
19
19
19
19
19
19
19
19
19
19
19
19
19
19
19
19
19
19
19
19
19
19
19
19
19
19
19
19
19
19
19
19
19
19
19
19
19
19
19
19
19
19
19
19
19
19
19
19
19
19
19
19
19
19
19
19
19
19
19
19
19
19
19
19
19
19
19
19
19
19
19
19
19
19
19
19
19
19
19
19
19
19
19
19
19
19
19
19
19
19
19
19
19
19
19
19
19
19
19
19
19
19
19
19
19
19
19
19
19
19
19
19
19
19
19
19
19
19
19
19
19
19
19
19
19
19
19
19
19
19
19
19
19
19
19
19
19
19
19
19
19
19
19
19
19
19
19
19
19
19
19
19
19
19
19
19
19
19
19
19
19
19
19
19
19
19
19
19
19
19
19
19
19
19
19
19
19
19
19
19
19
19
19
19
19
19
19
19
19
19
19
19
19
19
19
19
19
19
19
19
19
19
19
19
19
19
19
19
19
19
19
19
19
19
19
19
19
19
19
19
19
19
19
19
19
19
19
19
19
19
19
19
19
19
19
19
19
19
19
19
19
19
19
19
19
19
19
19
19
19
19
19
19
19
19
19
19
19
19
19
19
19
19
19
19
19
19
19
19
19
19
19
19
19
19
19
19
19
19
19
19
19
19
19
19
19
19
19
19
19
19
19
19
19
19
19
19
19
19
19
19
19
19
19
19
19
19
19
19
19
19
19
19
19
19
19
19
19
19
19
19
19
19
19
19
19
19
19
19
19
19
19
19
19
19
19
19
19
19
19
19
19
19
19
19
19
19
19
19
