# vtk DataFile Version 2.0
shape2mesh, Created by Gmsh 4.13.1 
ASCII
DATASET UNSTRUCTURED_GRID
POINTS 45 double
25 -25 0
22.5 -20.66987298107781 0
17.5 -20.66987298107781 0
15 -25 0
17.5 -29.33012701892219 0
22.5 -29.33012701892219 0
24.375 -23.91746824526945 0
23.75 -22.8349364905389 0
23.125 -21.75240473580835 0
21.25 -20.66987298107781 0
20 -20.66987298107781 0
18.75 -20.66987298107781 0
16.875 -21.75240473580835 0
16.25 -22.8349364905389 0
15.625 -23.91746824526945 0
15.625 -26.08253175473055 0
16.25 -27.1650635094611 0
16.875 -28.24759526419165 0
18.75 -29.33012701892219 0
20 -29.33012701892219 0
21.25 -29.33012701892219 0
23.125 -28.24759526419164 0
23.75 -27.1650635094611 0
24.375 -26.08253175473055 0
21.5625 -21.75240473580835 0
21.875 -22.8349364905389 0
22.1875 -23.91746824526945 0
22.5 -25 0
22.1875 -26.08253175473055 0
21.875 -27.1650635094611 0
21.5625 -28.24759526419165 0
20 -21.75240473580835 0
20 -22.8349364905389 0
20 -23.91746824526945 0
20 -25 0
20 -26.08253175473055 0
20 -27.1650635094611 0
20 -28.24759526419165 0
18.4375 -21.75240473580835 0
18.125 -22.8349364905389 0
17.8125 -23.91746824526945 0
17.5 -25 0
17.8125 -26.08253175473055 0
18.125 -27.1650635094611 0
18.4375 -28.24759526419164 0

CELLS 62 244
1 0
1 1
1 2
1 3
1 4
1 5
2 0 6
2 6 7
2 7 8
2 8 1
2 1 9
2 9 10
2 10 11
2 11 2
2 2 12
2 12 13
2 13 14
2 14 3
2 3 15
2 15 16
2 16 17
2 17 4
2 4 18
2 18 19
2 19 20
2 20 5
2 5 21
2 21 22
2 22 23
2 23 0
4 1 9 24 8
4 8 24 25 7
4 7 25 26 6
4 6 26 27 0
4 0 27 28 23
4 23 28 29 22
4 22 29 30 21
4 21 30 20 5
4 9 10 31 24
4 24 31 32 25
4 25 32 33 26
4 26 33 34 27
4 27 34 35 28
4 28 35 36 29
4 29 36 37 30
4 30 37 19 20
4 10 11 38 31
4 31 38 39 32
4 32 39 40 33
4 33 40 41 34
4 34 41 42 35
4 35 42 43 36
4 36 43 44 37
4 37 44 18 19
4 11 2 12 38
4 38 12 13 39
4 39 13 14 40
4 40 14 3 41
4 41 3 15 42
4 42 15 16 43
4 43 16 17 44
4 44 17 4 18

CELL_TYPES 62
1
1
1
1
1
1
3
3
3
3
3
3
3
3
3
3
3
3
3
3
3
3
3
3
3
3
3
3
3
3
9
9
9
9
9
9
9
9
9
9
9
9
9
9
9
9
9
9
9
9
9
9
9
9
9
9
9
9
9
9
9
9

CELL_DATA 62
SCALARS CellEntityIds int 1
LOOKUP_TABLE default
-1
-1
-1
-1
-1
-1
1
1
1
1
2
2
2
2
3
3
3
3
4
4
4
4
5
5
5
5
6
6
6
6
7
7
7
7
7
7
7
7
7
7
7
7
7
7
7
7
7
7
7
7
7
7
7
7
7
7
7
7
7
7
7
7
