# vtk DataFile Version 2.0
shape2mesh, Created by Gmsh 4.13.1
ASCII
DATASET UNSTRUCTURED_GRID
POINTS 157 double
40 -25 0
37.5 -20.66987298107781 0
32.5 -20.66987298107781 0
30 -25 0
32.5 -29.33012701892219 0
37.5 -29.33012701892219 0
39.79166666666666 -24.63915608175648 0
39.58333333333334 -24.27831216351297 0
39.375 -23.91746824526945 0
39.16666666666666 -23.55662432702594 0
38.95833333333334 -23.19578040878242 0
38.75 -22.8349364905389 0
38.54166666666666 -22.47409257229539 0
38.33333333333334 -22.11324865405187 0
38.125 -21.75240473580835 0
37.91666666666666 -21.39156081756484 0
37.70833333333334 -21.03071689932132 0
36.25 -20.66987298107781 0
35 -20.66987298107781 0
33.75 -20.66987298107781 0
31.875 -21.75240473580835 0
31.25 -22.8349364905389 0
30.625 -23.91746824526945 0
30.625 -26.08253175473055 0
31.25 -27.1650635094611 0
31.875 -28.24759526419165 0
33.33333333333334 -29.33012701892219 0
34.16666666666666 -29.33012701892219 0
35 -29.33012701892219 0
35.83333333333334 -29.33012701892219 0
36.66666666666666 -29.33012701892219 0
37.91666666666666 -28.60843918243516 0
38.33333333333334 -27.88675134594813 0
38.75 -27.1650635094611 0
39.16666666666666 -26.44337567297406 0
39.58333333333334 -25.72168783648703 0
39.70486111111111 -24.66922640827678 0
39.61805555555556 -24.69929673479707 0
39.53125 -24.72936706131736 0
39.44444444444444 -24.75943738783766 0
39.40972222222222 -24.87971869391883 0
39.375 -25 0
39.34027777777778 -25.12028130608117 0
39.30555555555556 -25.24056261216234 0
39.375 -25.36084391824352 0
39.44444444444444 -25.48112522432469 0
39.51388888888889 -25.60140653040586 0
39.40972222222222 -24.33845281655356 0
39.23611111111111 -24.39859346959414 0
39.0625 -24.45873412263473 0
38.88888888888889 -24.51887477567531 0
38.81944444444444 -24.75943738783766 0
38.75 -25 0
38.68055555555556 -25.24056261216234 0
38.61111111111111 -25.48112522432469 0
38.75 -25.72168783648703 0
38.88888888888889 -25.96225044864938 0
39.02777777777778 -26.20281306081172 0
39.11458333333334 -24.00767922483033 0
38.85416666666666 -24.09789020439121 0
38.59375 -24.18810118395209 0
38.33333333333334 -24.27831216351297 0
38.22916666666666 -24.63915608175648 0
38.125 -25 0
38.02083333333334 -25.36084391824351 0
37.91666666666666 -25.72168783648703 0
38.125 -26.08253175473055 0
38.33333333333334 -26.44337567297406 0
38.54166666666666 -26.80421959121758 0
38.81944444444444 -23.67690563310711 0
38.47222222222222 -23.79718693918828 0
38.125 -23.91746824526945 0
37.77777777777778 -24.03774955135062 0
37.63888888888889 -24.51887477567531 0
37.5 -25 0
37.36111111111111 -25.48112522432469 0
37.22222222222222 -25.96225044864937 0
37.5 -26.44337567297406 0
37.77777777777778 -26.92450089729875 0
38.05555555555556 -27.40562612162344 0
38.52430555555556 -23.34613204138389 0
38.09027777777778 -23.49648367398535 0
37.65625 -23.64683530658682 0
37.22222222222222 -23.79718693918828 0
37.04861111111111 -24.39859346959414 0
36.875 -25 0
36.70138888888889 -25.60140653040586 0
36.52777777777778 -26.20281306081172 0
36.875 -26.80421959121758 0
37.22222222222222 -27.40562612162344 0
37.56944444444444 -28.0070326520293 0
38.22916666666666 -23.01535844966066 0
37.70833333333334 -23.19578040878242 0
37.1875 -23.37620236790418 0
36.66666666666666 -23.55662432702594 0
36.45833333333334 -24.27831216351297 0
36.25 -25 0
36.04166666666666 -25.72168783648703 0
35.83333333333334 -26.44337567297406 0
36.25 -27.1650635094611 0
36.66666666666666 -27.88675134594813 0
37.08333333333333 -28.60843918243516 0
37.89930555555556 -22.62444420489685 0
37.25694444444444 -22.77479583749832 0
36.61458333333334 -22.92514747009978 0
35.97222222222222 -23.07549910270125 0
35.69444444444444 -23.85732759222886 0
35.41666666666666 -24.63915608175648 0
35.13888888888889 -25.4209845712841 0
34.86111111111111 -26.20281306081172 0
35.3125 -26.98464155033934 0
35.76388888888889 -27.76647003986696 0
36.21527777777778 -28.54829852939458 0
37.56944444444444 -22.23352996013304 0
36.80555555555556 -22.35381126621422 0
36.04166666666666 -22.47409257229539 0
35.27777777777778 -22.59437387837656 0
34.93055555555556 -23.43634302094476 0
34.58333333333334 -24.27831216351297 0
34.23611111111111 -25.12028130608117 0
33.88888888888889 -25.96225044864937 0
34.375 -26.80421959121758 0
34.86111111111111 -27.64618873378578 0
35.34722222222222 -28.48815787635399 0
37.23958333333334 -21.84261571536923 0
36.35416666666666 -21.93282669493011 0
35.46875 -22.02303767449099 0
34.58333333333334 -22.11324865405187 0
34.16666666666666 -23.01535844966066 0
33.75 -23.91746824526945 0
33.33333333333333 -24.81957804087824 0
32.91666666666666 -25.72168783648703 0
33.4375 -26.62379763209582 0
33.95833333333333 -27.52590742770461 0
34.47916666666666 -28.4280172233134 0
36.90972222222222 -21.45170147060542 0
35.90277777777778 -21.51184212364601 0
34.89583333333333 -21.5719827766866 0
33.88888888888889 -21.63212342972718 0
33.40277777777778 -22.59437387837656 0
32.91666666666666 -23.55662432702593 0
32.43055555555555 -24.51887477567531 0
31.94444444444444 -25.48112522432469 0
32.5 -26.44337567297406 0
33.05555555555555 -27.40562612162344 0
33.61111111111111 -28.36787657027282 0
36.57986111111111 -21.06078722584162 0
35.45138888888889 -21.09085755236191 0
34.32291666666666 -21.1209278788822 0
33.19444444444444 -21.15099820540249 0
32.63888888888889 -22.17338930709246 0
32.08333333333334 -23.19578040878242 0
31.52777777777778 -24.21817151047238 0
30.97222222222222 -25.24056261216234 0
31.5625 -26.2629537138523 0
32.15277777777778 -27.28534481554227 0
32.74305555555556 -28.30773591723223 0

CELLS 186 828
1 0
1 1
1 2
1 3
1 4
1 5
2 0 6
2 6 7
2 7 8
2 8 9
2 9 10
2 10 11
2 11 12
2 12 13
2 13 14
2 14 15
2 15 16
2 16 1
2 1 17
2 17 18
2 18 19
2 19 2
2 2 20
2 20 21
2 21 22
2 22 3
2 3 23
2 23 24
2 24 25
2 25 4
2 4 26
2 26 27
2 27 28
2 28 29
2 29 30
2 30 5
2 5 31
2 31 32
2 32 33
2 33 34
2 34 35
2 35 0
3 0 6 36
3 0 36 37
3 0 37 38
3 0 38 39
3 0 39 40
3 0 40 41
3 0 41 42
3 0 42 43
3 0 43 44
3 0 44 45
3 0 45 46
3 0 46 35
4 6 7 47 36
4 36 47 48 37
4 37 48 49 38
4 38 49 50 39
4 39 50 51 40
4 40 51 52 41
4 41 52 53 42
4 42 53 54 43
4 43 54 55 44
4 44 55 56 45
4 45 56 57 46
4 46 57 34 35
4 7 8 58 47
4 47 58 59 48
4 48 59 60 49
4 49 60 61 50
4 50 61 62 51
4 51 62 63 52
4 52 63 64 53
4 53 64 65 54
4 54 65 66 55
4 55 66 67 56
4 56 67 68 57
4 57 68 33 34
4 8 9 69 58
4 58 69 70 59
4 59 70 71 60
4 60 71 72 61
4 61 72 73 62
4 62 73 74 63
4 63 74 75 64
4 64 75 76 65
4 65 76 77 66
4 66 77 78 67
4 67 78 79 68
4 68 79 32 33
4 9 10 80 69
4 69 80 81 70
4 70 81 82 71
4 71 82 83 72
4 72 83 84 73
4 73 84 85 74
4 74 85 86 75
4 75 86 87 76
4 76 87 88 77
4 77 88 89 78
4 78 89 90 79
4 79 90 31 32
4 10 11 91 80
4 80 91 92 81
4 81 92 93 82
4 82 93 94 83
4 83 94 95 84
4 84 95 96 85
4 85 96 97 86
4 86 97 98 87
4 87 98 99 88
4 88 99 100 89
4 89 100 101 90
4 90 101 5 31
4 11 12 102 91
4 91 102 103 92
4 92 103 104 93
4 93 104 105 94
4 94 105 106 95
4 95 106 107 96
4 96 107 108 97
4 97 108 109 98
4 98 109 110 99
4 99 110 111 100
4 100 111 112 101
4 101 112 30 5
4 12 13 113 102
4 102 113 114 103
4 103 114 115 104
4 104 115 116 105
4 105 116 117 106
4 106 117 118 107
4 107 118 119 108
4 108 119 120 109
4 109 120 121 110
4 110 121 122 111
4 111 122 123 112
4 112 123 29 30
4 13 14 124 113
4 113 124 125 114
4 114 125 126 115
4 115 126 127 116
4 116 127 128 117
4 117 128 129 118
4 118 129 130 119
4 119 130 131 120
4 120 131 132 121
4 121 132 133 122
4 122 133 134 123
4 123 134 28 29
4 14 15 135 124
4 124 135 136 125
4 125 136 137 126
4 126 137 138 127
4 127 138 139 128
4 128 139 140 129
4 129 140 141 130
4 130 141 142 131
4 131 142 143 132
4 132 143 144 133
4 133 144 145 134
4 134 145 27 28
4 15 16 146 135
4 135 146 147 136
4 136 147 148 137
4 137 148 149 138
4 138 149 150 139
4 139 150 151 140
4 140 151 152 141
4 141 152 153 142
4 142 153 154 143
4 143 154 155 144
4 144 155 156 145
4 145 156 26 27
4 16 1 17 146
4 146 17 18 147
4 147 18 19 148
4 148 19 2 149
4 149 2 20 150
4 150 20 21 151
4 151 21 22 152
4 152 22 3 153
4 153 3 23 154
4 154 23 24 155
4 155 24 25 156
4 156 25 4 26

CELL_TYPES 186
1
1
1
1
1
1
3
3
3
3
3
3
3
3
3
3
3
3
3
3
3
3
3
3
3
3
3
3
3
3
3
3
3
3
3
3
3
3
3
3
3
3
5
5
5
5
5
5
5
5
5
5
5
5
9
9
9
9
9
9
9
9
9
9
9
9
9
9
9
9
9
9
9
9
9
9
9
9
9
9
9
9
9
9
9
9
9
9
9
9
9
9
9
9
9
9
9
9
9
9
9
9
9
9
9
9
9
9
9
9
9
9
9
9
9
9
9
9
9
9
9
9
9
9
9
9
9
9
9
9
9
9
9
9
9
9
9
9
9
9
9
9
9
9
9
9
9
9
9
9
9
9
9
9
9
9
9
9
9
9
9
9
9
9
9
9
9
9
9
9
9
9
9
9
9
9
9
9
9
9
9
9
9
9
9
9

CELL_DATA 186
SCALARS CellEntityIds int 1
LOOKUP_TABLE default
-1
-1
-1
-1
-1
-1
1
1
1
1
1
1
1
1
1
1
1
1
2
2
2
2
3
3
3
3
4
4
4
4
5
5
5
5
5
5
6
6
6
6
6
6
7
7
7
7
7
7
7
7
7
7
7
7
7
7
7
7
7
7
7
7
7
7
7
7
7
7
7
7
7
7
7
7
7
7
7
7
7
7
7
7
7
7
7
7
7
7
7
7
7
7
7
7
7
7
7
7
7
7
7
7
7
7
7
7
7
7
7
7
7
7
7
7
7
7
7
7
7
7
7
7
7
7
7
7
7
7
7
7
7
7
7
7
7
7
7
7
7
7
7
7
7
7
7
7
7
7
7
7
7
7
7
7
7
7
7
7
7
7
7
7
7
7
7
7
7
7
7
7
7
7
7
7
7
7
7
7
7
7
7
7
7
7
7
7
