# vtk DataFile Version 2.0
shape2mesh, Created by Gmsh 4.13.1 
ASCII
DATASET UNSTRUCTURED_GRID
POINTS 73 double
10 -25 0
7.5 -20.66987298107781 0
2.5 -20.66987298107781 0
0 -25 0
2.5 -29.33012701892219 0
7.5 -29.33012701892219 0
9.375 -23.91746824526945 0
8.75 -22.8349364905389 0
8.125 -21.75240473580835 0
6.25 -20.66987298107781 0
5 -20.66987298107781 0
3.75 -20.66987298107781 0
1.875000000000001 -21.75240473580835 0
1.25 -22.8349364905389 0
0.625 -23.91746824526945 0
0.6249999999999997 -26.08253175473055 0
1.249999999999999 -27.1650635094611 0
1.874999999999999 -28.24759526419165 0
3.749999999999998 -29.33012701892219 0
4.999999999999998 -29.33012701892219 0
6.249999999999998 -29.33012701892219 0
8.125 -28.24759526419164 0
8.75 -27.1650635094611 0
9.375 -26.08253175473055 0
9.296875 -24.18810118395209 0
9.21875 -24.45873412263473 0
9.140625 -24.72936706131736 0
9.0625 -25 0
9.140625 -25.27063293868264 0
9.21875 -25.54126587736527 0
9.296875 -25.81189881604791 0
8.59375 -23.37620236790418 0
8.4375 -23.91746824526945 0
8.28125 -24.45873412263472 0
8.125 -25 0
8.28125 -25.54126587736527 0
8.4375 -26.08253175473055 0
8.59375 -26.62379763209582 0
7.890625000000001 -22.56430355185627 0
7.65625 -23.37620236790418 0
7.421875 -24.18810118395209 0
7.1875 -25 0
7.421875 -25.81189881604791 0
7.65625 -26.62379763209582 0
7.890625000000001 -27.43569644814373 0
7.1875 -21.75240473580835 0
6.875 -22.8349364905389 0
6.5625 -23.91746824526945 0
6.249999999999999 -25 0
6.562499999999999 -26.08253175473055 0
6.874999999999998 -27.1650635094611 0
7.187499999999998 -28.24759526419165 0
5.859375 -21.75240473580835 0
5.46875 -22.8349364905389 0
5.078124999999999 -23.91746824526945 0
4.687499999999999 -25 0
5.078124999999999 -26.08253175473055 0
5.468749999999998 -27.1650635094611 0
5.859374999999998 -28.24759526419165 0
4.531250000000001 -21.75240473580835 0
4.0625 -22.8349364905389 0
3.59375 -23.91746824526945 0
3.124999999999999 -25 0
3.593749999999999 -26.08253175473055 0
4.062499999999998 -27.1650635094611 0
4.531249999999998 -28.24759526419165 0
3.203125000000001 -21.75240473580835 0
2.65625 -22.8349364905389 0
2.109375 -23.91746824526945 0
1.562499999999999 -25 0
2.109374999999999 -26.08253175473055 0
2.656249999999999 -27.1650635094611 0
3.203124999999998 -28.24759526419164 0

CELLS 94 396
1 0
1 1
1 2
1 3
1 4
1 5
2 0 6
2 6 7
2 7 8
2 8 1
2 1 9
2 9 10
2 10 11
2 11 2
2 2 12
2 12 13
2 13 14
2 14 3
2 3 15
2 15 16
2 16 17
2 17 4
2 4 18
2 18 19
2 19 20
2 20 5
2 5 21
2 21 22
2 22 23
2 23 0
3 0 6 24
3 0 24 25
3 0 25 26
3 0 26 27
3 0 27 28
3 0 28 29
3 0 29 30
3 0 30 23
4 6 7 31 24
4 24 31 32 25
4 25 32 33 26
4 26 33 34 27
4 27 34 35 28
4 28 35 36 29
4 29 36 37 30
4 30 37 22 23
4 7 8 38 31
4 31 38 39 32
4 32 39 40 33
4 33 40 41 34
4 34 41 42 35
4 35 42 43 36
4 36 43 44 37
4 37 44 21 22
4 8 1 45 38
4 38 45 46 39
4 39 46 47 40
4 40 47 48 41
4 41 48 49 42
4 42 49 50 43
4 43 50 51 44
4 44 51 5 21
4 1 9 52 45
4 45 52 53 46
4 46 53 54 47
4 47 54 55 48
4 48 55 56 49
4 49 56 57 50
4 50 57 58 51
4 51 58 20 5
4 9 10 59 52
4 52 59 60 53
4 53 60 61 54
4 54 61 62 55
4 55 62 63 56
4 56 63 64 57
4 57 64 65 58
4 58 65 19 20
4 10 11 66 59
4 59 66 67 60
4 60 67 68 61
4 61 68 69 62
4 62 69 70 63
4 63 70 71 64
4 64 71 72 65
4 65 72 18 19
4 11 2 12 66
4 66 12 13 67
4 67 13 14 68
4 68 14 3 69
4 69 3 15 70
4 70 15 16 71
4 71 16 17 72
4 72 17 4 18

CELL_TYPES 94
1
1
1
1
1
1
3
3
3
3
3
3
3
3
3
3
3
3
3
3
3
3
3
3
3
3
3
3
3
3
5
5
5
5
5
5
5
5
9
9
9
9
9
9
9
9
9
9
9
9
9
9
9
9
9
9
9
9
9
9
9
9
9
9
9
9
9
9
9
9
9
9
9
9
9
9
9
9
9
9
9
9
9
9
9
9
9
9
9
9
9
9
9
9

CELL_DATA 94
SCALARS CellEntityIds int 1
LOOKUP_TABLE default
-1
-1
-1
-1
-1
-1
1
1
1
1
2
2
2
2
3
3
3
3
4
4
4
4
5
5
5
5
6
6
6
6
7
7
7
7
7
7
7
7
7
7
7
7
7
7
7
7
7
7
7
7
7
7
7
7
7
7
7
7
7
7
7
7
7
7
7
7
7
7
7
7
7
7
7
7
7
7
7
7
7
7
7
7
7
7
7
7
7
7
7
7
7
7
7
7
