# vtk DataFile Version 2.0
shape2mesh, Created by Gmsh 4.13.1 
ASCII
DATASET UNSTRUCTURED_GRID
POINTS 78 double
55 -25 0
52.5 -20.66987298107781 0
47.5 -20.66987298107781 0
45 -25 0
47.5 -29.33012701892219 0
52.5 -29.33012701892219 0
54.375 -23.91746824526945 0
53.75 -22.8349364905389 0
53.125 -21.75240473580835 0
51.25 -20.66987298107781 0
50 -20.66987298107781 0
48.75 -20.66987298107781 0
46.875 -21.75240473580835 0
46.25 -22.8349364905389 0
45.625 -23.91746824526945 0
45.5 -25.86602540378444 0
46 -26.73205080756888 0
46.5 -27.59807621135332 0
47 -28.46410161513776 0
47.91666666666666 -29.33012701892219 0
48.33333333333334 -29.33012701892219 0
48.75 -29.33012701892219 0
49.16666666666666 -29.33012701892219 0
49.58333333333334 -29.33012701892219 0
50 -29.33012701892219 0
50.41666666666666 -29.33012701892219 0
50.83333333333334 -29.33012701892219 0
51.25 -29.33012701892219 0
51.66666666666666 -29.33012701892219 0
52.08333333333334 -29.33012701892219 0
53 -28.46410161513775 0
53.5 -27.59807621135331 0
54 -26.73205080756887 0
54.5 -25.86602540378444 0
53.91666666666666 -25 0
53.45833333333334 -26.08253175473055 0
53 -27.1650635094611 0
52.54166666666666 -28.24759526419165 0
53.33333333333334 -24.13397459621556 0
52.91666666666667 -25.43301270189222 0
52.5 -26.73205080756887 0
52.08333333333334 -28.03108891324554 0
52.75 -23.26794919243112 0
52.375 -24.78349364905389 0
52 -26.29903810567666 0
51.625 -27.81458256229943 0
52.16666666666666 -22.40192378864668 0
51.83333333333334 -24.13397459621556 0
51.5 -25.86602540378444 0
51.16666666666666 -27.59807621135332 0
51.08333333333334 -22.40192378864668 0
50.91666666666666 -24.13397459621556 0
50.75 -25.86602540378444 0
50.58333333333334 -27.59807621135332 0
50 -22.40192378864668 0
50 -24.13397459621556 0
50 -25.86602540378444 0
50 -27.59807621135332 0
48.91666666666666 -22.40192378864668 0
49.08333333333334 -24.13397459621556 0
49.25 -25.86602540378444 0
49.41666666666666 -27.59807621135332 0
47.83333333333334 -22.40192378864668 0
48.16666666666666 -24.13397459621556 0
48.5 -25.86602540378444 0
48.83333333333334 -27.59807621135332 0
47.25 -23.26794919243112 0
47.625 -24.78349364905389 0
48 -26.29903810567666 0
48.375 -27.81458256229942 0
46.66666666666666 -24.13397459621556 0
47.08333333333334 -25.43301270189222 0
47.5 -26.73205080756887 0
47.91666666666666 -28.03108891324553 0
46.08333333333334 -25 0
46.54166666666666 -26.08253175473055 0
47 -27.1650635094611 0
47.45833333333334 -28.24759526419165 0

CELLS 100 414
1 0
1 1
1 2
1 3
1 4
1 5
2 0 6
2 6 7
2 7 8
2 8 1
2 1 9
2 9 10
2 10 11
2 11 2
2 2 12
2 12 13
2 13 14
2 14 3
2 3 15
2 15 16
2 16 17
2 17 18
2 18 4
2 4 19
2 19 20
2 20 21
2 21 22
2 22 23
2 23 24
2 24 25
2 25 26
2 26 27
2 27 28
2 28 29
2 29 5
2 5 30
2 30 31
2 31 32
2 32 33
2 33 0
4 0 6 34 33
4 33 34 35 32
4 32 35 36 31
4 31 36 37 30
4 30 37 29 5
4 6 7 38 34
4 34 38 39 35
4 35 39 40 36
4 36 40 41 37
4 37 41 28 29
4 7 8 42 38
4 38 42 43 39
4 39 43 44 40
4 40 44 45 41
4 41 45 27 28
4 8 1 46 42
4 42 46 47 43
4 43 47 48 44
4 44 48 49 45
4 45 49 26 27
4 1 9 50 46
4 46 50 51 47
4 47 51 52 48
4 48 52 53 49
4 49 53 25 26
4 9 10 54 50
4 50 54 55 51
4 51 55 56 52
4 52 56 57 53
4 53 57 24 25
4 10 11 58 54
4 54 58 59 55
4 55 59 60 56
4 56 60 61 57
4 57 61 23 24
4 11 2 62 58
4 58 62 63 59
4 59 63 64 60
4 60 64 65 61
4 61 65 22 23
4 2 12 66 62
4 62 66 67 63
4 63 67 68 64
4 64 68 69 65
4 65 69 21 22
4 12 13 70 66
4 66 70 71 67
4 67 71 72 68
4 68 72 73 69
4 69 73 20 21
4 13 14 74 70
4 70 74 75 71
4 71 75 76 72
4 72 76 77 73
4 73 77 19 20
4 14 3 15 74
4 74 15 16 75
4 75 16 17 76
4 76 17 18 77
4 77 18 4 19

CELL_TYPES 100
1
1
1
1
1
1
3
3
3
3
3
3
3
3
3
3
3
3
3
3
3
3
3
3
3
3
3
3
3
3
3
3
3
3
3
3
3
3
3
3
9
9
9
9
9
9
9
9
9
9
9
9
9
9
9
9
9
9
9
9
9
9
9
9
9
9
9
9
9
9
9
9
9
9
9
9
9
9
9
9
9
9
9
9
9
9
9
9
9
9
9
9
9
9
9
9
9
9
9
9

CELL_DATA 100
SCALARS CellEntityIds int 1
LOOKUP_TABLE default
-1
-1
-1
-1
-1
-1
1
1
1
1
2
2
2
2
3
3
3
3
4
4
4
4
4
5
5
5
5
5
5
5
5
5
5
5
5
6
6
6
6
6
7
7
7
7
7
7
7
7
7
7
7
7
7
7
7
7
7
7
7
7
7
7
7
7
7
7
7
7
7
7
7
7
7
7
7
7
7
7
7
7
7
7
7
7
7
7
7
7
7
7
7
7
7
7
7
7
7
7
7
7
