# vtk DataFile Version 2.0
shape2mesh, Created by Gmsh 4.13.1 
ASCII
DATASET UNSTRUCTURED_GRID
POINTS 81 double
32.5 -40 0
37.5 -40 0
35 -36 0
32.5 -45 0
37.5 -45 0
33.54477470245961 -40 0
34.11686082881226 -40 0
34.51653728413951 -40 0
34.84544894248755 -40 0
35.15455105751245 -40 0
35.48346271586049 -40 0
35.88313917118774 -40 0
36.45522529754039 -40 0
36.875 -39 0
36.25 -38 0
35.625 -37 0
34.375 -37 0
33.75 -38 0
33.125 -39 0
33.54477470245961 -45 0
34.11686082881226 -45 0
34.51653728413951 -45 0
34.84544894248755 -45 0
35.15455105751245 -45 0
35.48346271586049 -45 0
35.88313917118774 -45 0
36.45522529754039 -45 0
37.5 -43.75 0
37.5 -42.5 0
37.5 -41.25 0
32.5 -41.25 0
32.5 -42.5 0
32.5 -43.75 0
35.3638063243851 -37.00000000000001 0
35.22078479279693 -37 0
35.12086567896512 -37 0
35.03863776437812 -37 0
34.96136223562188 -37 0
34.87913432103488 -37 0
34.77921520720307 -37 0
34.6361936756149 -37 0
35.7276126487702 -38 0
35.44156958559387 -38 0
35.24173135793025 -38 0
35.07727552875622 -38 0
34.92272447124378 -38 0
34.75826864206975 -38 0
34.55843041440612 -38 0
34.27238735122981 -38 0
36.09141897315529 -39 0
35.6623543783908 -39 0
35.36259703689537 -39 0
35.11591329313434 -39 0
34.88408670686566 -39 0
34.63740296310463 -39 0
34.33764562160919 -39 0
33.90858102684471 -39 0
33.54477470245961 -43.75 0
33.54477470245961 -42.5 0
33.54477470245961 -41.25 0
34.11686082881226 -43.75 0
34.11686082881226 -42.5 0
34.11686082881226 -41.25 0
34.51653728413951 -43.75 0
34.51653728413951 -42.5 0
34.51653728413951 -41.25 0
34.84544894248755 -43.75 0
34.84544894248755 -42.5 0
34.84544894248755 -41.25 0
35.15455105751245 -43.75 0
35.15455105751245 -42.5 0
35.15455105751245 -41.25 0
35.48346271586049 -43.75 0
35.48346271586049 -42.5 0
35.48346271586049 -41.25 0
35.88313917118774 -43.75 0
35.88313917118774 -42.5 0
35.88313917118774 -41.25 0
36.45522529754039 -43.75 0
36.45522529754039 -42.5 0
36.45522529754039 -41.25 0

CELLS 111 463
1 0
1 1
1 2
1 3
1 4
2 0 5
2 5 6
2 6 7
2 7 8
2 8 9
2 9 10
2 10 11
2 11 12
2 12 1
2 1 13
2 13 14
2 14 15
2 15 2
2 2 16
2 16 17
2 17 18
2 18 0
2 3 19
2 19 20
2 20 21
2 21 22
2 22 23
2 23 24
2 24 25
2 25 26
2 26 4
2 4 27
2 27 28
2 28 29
2 29 1
2 0 30
2 30 31
2 31 32
2 32 3
3 2 33 15
3 2 34 33
3 2 35 34
3 2 36 35
3 2 37 36
3 2 38 37
3 2 39 38
3 2 40 39
3 2 16 40
4 15 33 41 14
4 33 34 42 41
4 34 35 43 42
4 35 36 44 43
4 36 37 45 44
4 37 38 46 45
4 38 39 47 46
4 39 40 48 47
4 40 16 17 48
4 14 41 49 13
4 41 42 50 49
4 42 43 51 50
4 43 44 52 51
4 44 45 53 52
4 45 46 54 53
4 46 47 55 54
4 47 48 56 55
4 48 17 18 56
4 13 49 12 1
4 49 50 11 12
4 50 51 10 11
4 51 52 9 10
4 52 53 8 9
4 53 54 7 8
4 54 55 6 7
4 55 56 5 6
4 56 18 0 5
4 3 19 57 32
4 32 57 58 31
4 31 58 59 30
4 30 59 5 0
4 19 20 60 57
4 57 60 61 58
4 58 61 62 59
4 59 62 6 5
4 20 21 63 60
4 60 63 64 61
4 61 64 65 62
4 62 65 7 6
4 21 22 66 63
4 63 66 67 64
4 64 67 68 65
4 65 68 8 7
4 22 23 69 66
4 66 69 70 67
4 67 70 71 68
4 68 71 9 8
4 23 24 72 69
4 69 72 73 70
4 70 73 74 71
4 71 74 10 9
4 24 25 75 72
4 72 75 76 73
4 73 76 77 74
4 74 77 11 10
4 25 26 78 75
4 75 78 79 76
4 76 79 80 77
4 77 80 12 11
4 26 4 27 78
4 78 27 28 79
4 79 28 29 80
4 80 29 1 12

CELL_TYPES 111
1
1
1
1
1
3
3
3
3
3
3
3
3
3
3
3
3
3
3
3
3
3
3
3
3
3
3
3
3
3
3
3
3
3
3
3
3
3
3
5
5
5
5
5
5
5
5
5
9
9
9
9
9
9
9
9
9
9
9
9
9
9
9
9
9
9
9
9
9
9
9
9
9
9
9
9
9
9
9
9
9
9
9
9
9
9
9
9
9
9
9
9
9
9
9
9
9
9
9
9
9
9
9
9
9
9
9
9
9
9
9

CELL_DATA 111
SCALARS CellEntityIds int 1
LOOKUP_TABLE default
-1
-1
-1
-1
-1
1
1
1
1
1
1
1
1
1
2
2
2
2
3
3
3
3
4
4
4
4
4
4
4
4
4
5
5
5
5
6
6
6
6
7
7
7
7
7
7
7
7
7
7
7
7
7
7
7
7
7
7
7
7
7
7
7
7
7
7
7
7
7
7
7
7
7
7
7
7
8
8
8
8
8
8
8
8
8
8
8
8
8
8
8
8
8
8
8
8
8
8
8
8
8
8
8
8
8
8
8
8
8
8
8
8
