# vtk DataFile Version 2.0
shape2mesh, Created by Gmsh 4.13.1 
ASCII
DATASET UNSTRUCTURED_GRID
POINTS 41 double
17.5 -40 0
22.5 -40 0
20 -36 0
17.5 -45 0
22.5 -45 0
18.75 -40 0
20 -40 0
21.25 -40 0
21.875 -39 0
21.25 -38 0
20.625 -37 0
19.375 -37 0
18.75 -38 0
18.125 -39 0
18.75 -45 0
20 -45 0
21.25 -45 0
22.5 -43.75 0
22.5 -42.5 0
22.5 -41.25 0
17.5 -41.25 0
17.5 -42.5 0
17.5 -43.75 0
20.3125 -37.00000000000001 0
20 -37 0
19.6875 -37 0
20.625 -38 0
20 -38 0
19.375 -38 0
20.9375 -39 0
20 -39 0
19.0625 -39 0
18.75 -43.75 0
18.75 -42.5 0
18.75 -41.25 0
20 -43.75 0
20 -42.5 0
20 -41.25 0
21.25 -43.75 0
21.25 -42.5 0
21.25 -41.25 0

CELLS 61 238
1 0
1 1
1 2
1 3
1 4
2 0 5
2 5 6
2 6 7
2 7 1
2 1 8
2 8 9
2 9 10
2 10 2
2 2 11
2 11 12
2 12 13
2 13 0
2 3 14
2 14 15
2 15 16
2 16 4
2 4 17
2 17 18
2 18 19
2 19 1
2 0 20
2 20 21
2 21 22
2 22 3
3 2 23 10
3 2 24 23
3 2 25 24
3 2 11 25
4 10 23 26 9
4 23 24 27 26
4 24 25 28 27
4 25 11 12 28
4 9 26 29 8
4 26 27 30 29
4 27 28 31 30
4 28 12 13 31
4 8 29 7 1
4 29 30 6 7
4 30 31 5 6
4 31 13 0 5
4 3 14 32 22
4 22 32 33 21
4 21 33 34 20
4 20 34 5 0
4 14 15 35 32
4 32 35 36 33
4 33 36 37 34
4 34 37 6 5
4 15 16 38 35
4 35 38 39 36
4 36 39 40 37
4 37 40 7 6
4 16 4 17 38
4 38 17 18 39
4 39 18 19 40
4 40 19 1 7

CELL_TYPES 61
1
1
1
1
1
3
3
3
3
3
3
3
3
3
3
3
3
3
3
3
3
3
3
3
3
3
3
3
3
5
5
5
5
9
9
9
9
9
9
9
9
9
9
9
9
9
9
9
9
9
9
9
9
9
9
9
9
9
9
9
9

CELL_DATA 61
SCALARS CellEntityIds int 1
LOOKUP_TABLE default
-1
-1
-1
-1
-1
1
1
1
1
2
2
2
2
3
3
3
3
4
4
4
4
5
5
5
5
6
6
6
6
7
7
7
7
7
7
7
7
7
7
7
7
7
7
7
7
8
8
8
8
8
8
8
8
8
8
8
8
8
8
8
8
