# vtk DataFile Version 2.0
shape2mesh, Created by Gmsh 4.13.1 
ASCII
DATASET UNSTRUCTURED_GRID
POINTS 41 double
2.5 -40 0
7.5 -40 0
5 -36 0
2.5 -45 0
7.5 -45 0
3.75 -40 0
5 -40 0
6.25 -40 0
6.875 -39 0
6.25 -38 0
5.625000000000001 -37 0
4.375 -37 0
3.75 -38 0
3.125000000000001 -39 0
3.75 -45 0
5 -45 0
6.25 -45 0
7.5 -43.75 0
7.5 -42.5 0
7.5 -41.25 0
2.5 -41.25 0
2.5 -42.5 0
2.5 -43.75 0
3.59375 -39.75 0
3.4375 -39.5 0
3.281250000000001 -39.25 0
4.6875 -39.5 0
4.375 -39 0
4.0625 -38.5 0
5.78125 -39.25 0
5.3125 -38.5 0
4.84375 -37.75 0
3.75 -43.75 0
3.75 -42.5 0
3.75 -41.25 0
5 -43.75 0
5 -42.5 0
5 -41.25 0
6.25 -43.75 0
6.25 -42.5 0
6.25 -41.25 0

CELLS 61 238
1 0
1 1
1 2
1 3
1 4
2 0 5
2 5 6
2 6 7
2 7 1
2 1 8
2 8 9
2 9 10
2 10 2
2 2 11
2 11 12
2 12 13
2 13 0
2 3 14
2 14 15
2 15 16
2 16 4
2 4 17
2 17 18
2 18 19
2 19 1
2 0 20
2 20 21
2 21 22
2 22 3
3 0 5 23
3 0 23 24
3 0 24 25
3 0 25 13
4 5 6 26 23
4 23 26 27 24
4 24 27 28 25
4 25 28 12 13
4 6 7 29 26
4 26 29 30 27
4 27 30 31 28
4 28 31 11 12
4 7 1 8 29
4 29 8 9 30
4 30 9 10 31
4 31 10 2 11
4 3 14 32 22
4 22 32 33 21
4 21 33 34 20
4 20 34 5 0
4 14 15 35 32
4 32 35 36 33
4 33 36 37 34
4 34 37 6 5
4 15 16 38 35
4 35 38 39 36
4 36 39 40 37
4 37 40 7 6
4 16 4 17 38
4 38 17 18 39
4 39 18 19 40
4 40 19 1 7

CELL_TYPES 61
1
1
1
1
1
3
3
3
3
3
3
3
3
3
3
3
3
3
3
3
3
3
3
3
3
3
3
3
3
5
5
5
5
9
9
9
9
9
9
9
9
9
9
9
9
9
9
9
9
9
9
9
9
9
9
9
9
9
9
9
9

CELL_DATA 61
SCALARS CellEntityIds int 1
LOOKUP_TABLE default
-1
-1
-1
-1
-1
1
1
1
1
2
2
2
2
3
3
3
3
4
4
4
4
5
5
5
5
6
6
6
6
7
7
7
7
7
7
7
7
7
7
7
7
7
7
7
7
8
8
8
8
8
8
8
8
8
8
8
8
8
8
8
8
