# vtk DataFile Version 2.0
shape2mesh, Created by Gmsh 4.13.1 
ASCII
DATASET UNSTRUCTURED_GRID
POINTS 36 double
0 -15 0
10 -15 0
10 -5 0
0 -5 0
2 -15 0
4 -15 0
6 -15 0
8 -15 0
10 -13 0
10 -11 0
10 -9 0
10 -7 0
8 -5 0
6 -5 0
4 -5 0
2 -5 0
0 -7 0
0 -9 0
0 -11 0
0 -13 0
2 -13 0
2 -11 0
2 -9 0
2 -7 0
4 -13 0
4 -11 0
4 -9 0
4 -7 0
6.000000000000001 -13 0
6 -11 0
6 -9 0
6.000000000000001 -7 0
7.999999999999999 -13 0
8 -11 0
7.999999999999999 -9 0
7.999999999999999 -7.000000000000001 0

CELLS 74 268
1 0
1 1
1 2
1 3
2 0 4
2 4 5
2 5 6
2 6 7
2 7 1
2 1 8
2 8 9
2 9 10
2 10 11
2 11 2
2 2 12
2 12 13
2 13 14
2 14 15
2 15 3
2 3 16
2 16 17
2 17 18
2 18 19
2 19 0
3 0 4 19
3 19 4 20
3 19 20 18
3 18 20 21
3 18 21 17
3 17 21 22
3 17 22 16
3 16 22 23
3 16 23 3
3 3 23 15
3 4 5 20
3 20 5 24
3 20 24 21
3 21 24 25
3 21 25 22
3 22 25 26
3 22 26 23
3 23 26 27
3 23 27 15
3 15 27 14
3 5 6 24
3 24 6 28
3 24 28 25
3 25 28 29
3 25 29 26
3 26 29 30
3 26 30 27
3 27 30 31
3 27 31 14
3 14 31 13
3 6 7 28
3 28 7 32
3 28 32 29
3 29 32 33
3 29 33 30
3 30 33 34
3 30 34 31
3 31 34 35
3 31 35 13
3 13 35 12
3 7 1 32
3 32 1 8
3 32 8 33
3 33 8 9
3 33 9 34
3 34 9 10
3 34 10 35
3 35 10 11
3 35 11 12
3 12 11 2

CELL_TYPES 74
1
1
1
1
3
3
3
3
3
3
3
3
3
3
3
3
3
3
3
3
3
3
3
3
5
5
5
5
5
5
5
5
5
5
5
5
5
5
5
5
5
5
5
5
5
5
5
5
5
5
5
5
5
5
5
5
5
5
5
5
5
5
5
5
5
5
5
5
5
5
5
5
5
5

CELL_DATA 74
SCALARS CellEntityIds int 1
LOOKUP_TABLE default
-1
-1
-1
-1
1
1
1
1
1
2
2
2
2
2
3
3
3
3
3
4
4
4
4
4
5
5
5
5
5
5
5
5
5
5
5
5
5
5
5
5
5
5
5
5
5
5
5
5
5
5
5
5
5
5
5
5
5
5
5
5
5
5
5
5
5
5
5
5
5
5
5
5
5
5
