# vtk DataFile Version 2.0
shape2mesh, Created by Gmsh 4.13.1
ASCII
DATASET UNSTRUCTURED_GRID
POINTS 153 double
95 -12 0
105 -10 0
105 -5 0
99 -8 0
105 -15 0
112 -10 0
115 -15 0
96.11111111111111 -11.77777777777778 0
97.22222222222223 -11.55555555555555 0
98.33333333333334 -11.33333333333333 0
99.44444444444446 -11.11111111111111 0
100.5555555555556 -10.88888888888889 0
101.6666666666667 -10.66666666666666 0
102.7777777777778 -10.44444444444444 0
103.8888888888889 -10.22222222222222 0
105 -8.272542579471395 0
105 -7.500000000000001 0
105 -6.727457420528608 0
104.3333333333333 -5.333333333333333 0
103.6666666666667 -5.666666666666667 0
103 -6 0
102.3333333333333 -6.333333333333334 0
101.6666666666667 -6.666666666666667 0
101 -7.000000000000001 0
100.3333333333333 -7.333333333333334 0
99.66666666666666 -7.666666666666668 0
97.61803406357711 -9.381965936422885 0
97 -10 0
96.38196593642289 -10.61803406357712 0
98.45491484105723 -13.03647445231717 0
100 -13.50000000000001 0
101.5450851589428 -13.96352554768285 0
105 -13.27254257947139 0
105 -12.5 0
105 -11.72745742052861 0
105.7777777777778 -10 0
106.5555555555556 -10 0
107.3333333333333 -10 0
108.1111111111111 -10 0
108.8888888888889 -10 0
109.6666666666667 -10 0
110.4444444444444 -10 0
111.2222222222222 -10 0
113.0364744523172 -11.72745742052861 0
113.5 -12.5 0
113.9635255476828 -13.27254257947139 0
113.8888888888889 -15 0
112.7777777777778 -15 0
111.6666666666667 -15 0
110.5555555555556 -15 0
109.4444444444444 -15 0
108.3333333333333 -15 0
107.2222222222222 -15 0
106.1111111111111 -15 0
109.5815596112599 -8.272542579471393 0
108.5 -7.499999999999998 0
107.41844038874 -6.727457420528602 0
97.33952527682035 -10.35742389867648 0
97.8888888888889 -9.722222222222221 0
98.43825250095745 -9.087020545767965 0
98.29708461721781 -10.09681373377584 0
98.77777777777779 -9.444444444444445 0
99.25847093833777 -8.792075155113045 0
99.25464395761526 -9.836203568875208 0
99.66666666666667 -9.166666666666666 0
100.0786893757181 -8.497129764458126 0
100.2122032980127 -9.575593403974572 0
100.5555555555556 -8.888888888888889 0
100.8989078130984 -8.202184373803206 0
101.1697626384102 -9.314983239073937 0
101.4444444444445 -8.611111111111111 0
101.7191262504787 -7.907238983148286 0
102.1273219788076 -9.0543730741733 0
102.3333333333333 -8.333333333333334 0
102.539344687859 -7.612293592493367 0
103.0848813192051 -8.793762909272665 0
103.2222222222222 -8.055555555555557 0
103.3595631252394 -7.317348201838447 0
104.0424406596025 -8.53315274437203 0
104.1111111111111 -7.777777777777779 0
104.1797815626197 -7.022402811183528 0
101.928964585727 -13.88674966232602 0
102.3128440125111 -13.80997377696919 0
102.6967234392952 -13.73319789161236 0
103.0806028660793 -13.65642200625554 0
103.4644822928635 -13.57964612089871 0
103.8483617196476 -13.50287023554188 0
104.2322411464317 -13.42609435018505 0
104.6161205732159 -13.34931846482822 0
100.5555555555556 -13.3888888888889 0
101.1111111111111 -13.27777777777778 0
101.6666666666667 -13.16666666666667 0
102.2222222222222 -13.05555555555556 0
102.7777777777778 -12.94444444444445 0
103.3333333333333 -12.83333333333334 0
103.8888888888889 -12.72222222222222 0
104.4444444444444 -12.61111111111111 0
99.18214652538421 -12.89102811545177 0
99.90937820971118 -12.74558177858638 0
100.6366098940382 -12.60013544172098 0
101.3638415783651 -12.45468910485559 0
102.0910732626921 -12.30924276799019 0
102.8183049470191 -12.16379643112479 0
103.5455366313461 -12.0183500942594 0
104.272768315673 -11.872903757394 0
112.967578264607 -13.27254257947139 0
112.5555555555556 -12.5 0
112.1435328465041 -11.72745742052861 0
111.9716309815311 -13.27254257947139 0
111.6111111111111 -12.5 0
111.2505912406911 -11.72745742052861 0
110.9756836984552 -13.27254257947139 0
110.6666666666667 -12.5 0
110.3576496348781 -11.72745742052861 0
109.9797364153794 -13.27254257947139 0
109.7222222222222 -12.5 0
109.4647080290651 -11.72745742052861 0
108.9837891323035 -13.27254257947139 0
108.7777777777778 -12.5 0
108.5717664232521 -11.72745742052861 0
107.9878418492276 -13.27254257947139 0
107.8333333333333 -12.5 0
107.6788248174391 -11.72745742052861 0
106.9918945661517 -13.27254257947139 0
106.8888888888889 -12.5 0
106.785883211626 -11.72745742052861 0
105.9959472830759 -13.27254257947139 0
105.9444444444445 -12.5 0
105.892941605813 -11.72745742052861 0
105.2687155987489 -6.727457420528607 0
105.5374311974978 -6.727457420528606 0
105.8061467962467 -6.727457420528605 0
106.0748623949956 -6.727457420528605 0
106.3435779937445 -6.727457420528604 0
106.6122935924934 -6.727457420528603 0
106.8810091912422 -6.727457420528603 0
107.1497247899911 -6.727457420528602 0
105.3888888888889 -7.5 0
105.7777777777778 -7.5 0
106.1666666666667 -7.5 0
106.5555555555555 -7.5 0
106.9444444444444 -7.499999999999999 0
107.3333333333333 -7.499999999999999 0
107.7222222222222 -7.499999999999999 0
108.1111111111111 -7.499999999999998 0
105.5090621790289 -8.272542579471393 0
106.0181243580578 -8.272542579471395 0
106.5271865370866 -8.272542579471393 0
107.0362487161155 -8.272542579471393 0
107.5453108951444 -8.272542579471393 0
108.0543730741733 -8.272542579471393 0
108.5634352532022 -8.272542579471395 0
109.0724974322311 -8.272542579471393 0

CELLS 211 896
1 0
1 1
1 2
1 3
1 4
1 5
1 6
2 0 7
2 7 8
2 8 9
2 9 10
2 10 11
2 11 12
2 12 13
2 13 14
2 14 1
2 1 15
2 15 16
2 16 17
2 17 2
2 2 18
2 18 19
2 19 20
2 20 21
2 21 22
2 22 23
2 23 24
2 24 25
2 25 3
2 3 26
2 26 27
2 27 28
2 28 0
2 0 29
2 29 30
2 30 31
2 31 4
2 4 32
2 32 33
2 33 34
2 34 1
2 1 35
2 35 36
2 36 37
2 37 38
2 38 39
2 39 40
2 40 41
2 41 42
2 42 5
2 5 43
2 43 44
2 44 45
2 45 6
2 6 46
2 46 47
2 47 48
2 48 49
2 49 50
2 50 51
2 51 52
2 52 53
2 53 4
2 5 54
2 54 55
2 55 56
2 56 2
4 0 7 57 28
4 28 57 58 27
4 27 58 59 26
4 26 59 25 3
4 7 8 60 57
4 57 60 61 58
4 58 61 62 59
4 59 62 24 25
4 8 9 63 60
4 60 63 64 61
4 61 64 65 62
4 62 65 23 24
4 9 10 66 63
4 63 66 67 64
4 64 67 68 65
4 65 68 22 23
4 10 11 69 66
4 66 69 70 67
4 67 70 71 68
4 68 71 21 22
4 11 12 72 69
4 69 72 73 70
4 70 73 74 71
4 71 74 20 21
4 12 13 75 72
4 72 75 76 73
4 73 76 77 74
4 74 77 19 20
4 13 14 78 75
4 75 78 79 76
4 76 79 80 77
4 77 80 18 19
4 14 1 15 78
4 78 15 16 79
4 79 16 17 80
4 80 17 2 18
3 4 81 31
3 4 82 81
3 4 83 82
3 4 84 83
3 4 85 84
3 4 86 85
3 4 87 86
3 4 88 87
3 4 32 88
4 31 81 89 30
4 81 82 90 89
4 82 83 91 90
4 83 84 92 91
4 84 85 93 92
4 85 86 94 93
4 86 87 95 94
4 87 88 96 95
4 88 32 33 96
4 30 89 97 29
4 89 90 98 97
4 90 91 99 98
4 91 92 100 99
4 92 93 101 100
4 93 94 102 101
4 94 95 103 102
4 95 96 104 103
4 96 33 34 104
4 29 97 7 0
4 97 98 8 7
4 98 99 9 8
4 99 100 10 9
4 100 101 11 10
4 101 102 12 11
4 102 103 13 12
4 103 104 14 13
4 104 34 1 14
4 6 45 105 46
4 45 44 106 105
4 44 43 107 106
4 43 5 42 107
4 46 105 108 47
4 105 106 109 108
4 106 107 110 109
4 107 42 41 110
4 47 108 111 48
4 108 109 112 111
4 109 110 113 112
4 110 41 40 113
4 48 111 114 49
4 111 112 115 114
4 112 113 116 115
4 113 40 39 116
4 49 114 117 50
4 114 115 118 117
4 115 116 119 118
4 116 39 38 119
4 50 117 120 51
4 117 118 121 120
4 118 119 122 121
4 119 38 37 122
4 51 120 123 52
4 120 121 124 123
4 121 122 125 124
4 122 37 36 125
4 52 123 126 53
4 123 124 127 126
4 124 125 128 127
4 125 36 35 128
4 53 126 32 4
4 126 127 33 32
4 127 128 34 33
4 128 35 1 34
3 2 17 129
3 2 129 130
3 2 130 131
3 2 131 132
3 2 132 133
3 2 133 134
3 2 134 135
3 2 135 136
3 2 136 56
4 17 16 137 129
4 129 137 138 130
4 130 138 139 131
4 131 139 140 132
4 132 140 141 133
4 133 141 142 134
4 134 142 143 135
4 135 143 144 136
4 136 144 55 56
4 16 15 145 137
4 137 145 146 138
4 138 146 147 139
4 139 147 148 140
4 140 148 149 141
4 141 149 150 142
4 142 150 151 143
4 143 151 152 144
4 144 152 54 55
4 15 1 35 145
4 145 35 36 146
4 146 36 37 147
4 147 37 38 148
4 148 38 39 149
4 149 39 40 150
4 150 40 41 151
4 151 41 42 152
4 152 42 5 54

CELL_TYPES 211
1
1
1
1
1
1
1
3
3
3
3
3
3
3
3
3
3
3
3
3
3
3
3
3
3
3
3
3
3
3
3
3
3
3
3
3
3
3
3
3
3
3
3
3
3
3
3
3
3
3
3
3
3
3
3
3
3
3
3
3
3
3
3
3
3
3
3
9
9
9
9
9
9
9
9
9
9
9
9
9
9
9
9
9
9
9
9
9
9
9
9
9
9
9
9
9
9
9
9
9
9
9
9
5
5
5
5
5
5
5
5
5
9
9
9
9
9
9
9
9
9
9
9
9
9
9
9
9
9
9
9
9
9
9
9
9
9
9
9
9
9
9
9
9
9
9
9
9
9
9
9
9
9
9
9
9
9
9
9
9
9
9
9
9
9
9
9
9
9
9
9
9
9
9
9
5
5
5
5
5
5
5
5
5
9
9
9
9
9
9
9
9
9
9
9
9
9
9
9
9
9
9
9
9
9
9
9
9
9
9
9

CELL_DATA 211
SCALARS CellEntityIds int 1
LOOKUP_TABLE default
-1
-1
-1
-1
-1
-1
-1
1
1
1
1
1
1
1
1
1
3
3
3
3
4
4
4
4
4
4
4
4
4
5
5
5
5
6
6
6
6
7
7
7
7
8
8
8
8
8
8
8
8
8
9
9
9
9
10
10
10
10
10
10
10
10
10
2
2
2
2
11
11
11
11
11
11
11
11
11
11
11
11
11
11
11
11
11
11
11
11
11
11
11
11
11
11
11
11
11
11
11
11
11
11
11
11
12
12
12
12
12
12
12
12
12
12
12
12
12
12
12
12
12
12
12
12
12
12
12
12
12
12
12
12
12
12
12
12
12
12
12
12
13
13
13
13
13
13
13
13
13
13
13
13
13
13
13
13
13
13
13
13
13
13
13
13
13
13
13
13
13
13
13
13
13
13
13
13
14
14
14
14
14
14
14
14
14
14
14
14
14
14
14
14
14
14
14
14
14
14
14
14
14
14
14
14
14
14
14
14
14
14
14
14
