# vtk DataFile Version 2.0
shape2mesh, Created by Gmsh 4.13.1
ASCII
DATASET UNSTRUCTURED_GRID
POINTS 100 double
60 -15 0
70 -15 0
70 -5 0
60 -5 0
61.04908646865056 -14.51816624323707 0
62.19277151805996 -14.36436208316638 0
63.33981736493544 -14.50883007165052 0
64.452874377505 -14.82753476037175 0
65.54996834537533 -15.1989215252984 0
66.66392790583527 -15.51434926058487 0
67.81176334252754 -15.65190010405992 0
68.9541780452974 -15.4890287605989 0
70.48183375676292 -13.95091353134944 0
70.63563791683362 -12.80722848194004 0
70.49116992834946 -11.66018263506455 0
70.17246523962825 -10.547125622495 0
69.80107847470158 -9.450031654624656 0
69.48565073941512 -8.336072094164741 0
69.34809989594007 -7.188236657472462 0
69.5109712394011 -6.045821954702611 0
68.95417804529735 -4.510971239401094 0
67.81176334252751 -4.348099895940075 0
66.66392790583522 -4.485650739415133 0
65.54996834537531 -4.801078474701611 0
64.45287437750497 -5.172465239628258 0
63.33981736493541 -5.491169928349493 0
62.19277151805992 -5.635637916833618 0
61.04908646865054 -5.481833756762924 0
59.24260245246413 -5.985061716404893 0
59.15587890281373 -7.208931524323454 0
59.70452617821771 -8.327893534605439 0
60.35442024399542 -9.395973136901997 0
60.35442024399542 -10.604026863098 0
59.70452617821771 -11.67210646539455 0
59.15587890281373 -12.79106847567655 0
59.24260245246414 -14.01493828359512 0
60.42921140458279 -13.63322414900741 0
60.36918018256243 -12.52475709686357 0
60.84090966861677 -11.51014095760047 0
61.38331443377664 -10.54478792618663 0
61.34210015032308 -9.454898401238326 0
60.72932315885269 -8.489443896163269 0
60.22629690840799 -7.474737448590036 0
60.32147088509257 -6.366410736501482 0
61.71036346433727 -13.50654452557098 0
61.67701380293098 -12.440969115995 0
62.07185652634405 -11.45754030077728 0
62.50681534937588 -10.52158214220197 0
62.42440340727772 -9.477789417316449 0
61.84872851801717 -8.541629246581913 0
61.39130489015372 -7.558021677580003 0
61.49492588518201 -6.492727323840274 0
62.99512971959078 -13.61174807066528 0
62.98851080190772 -12.52315074982753 0
63.30632503446151 -11.50438045783739 0
63.63363985627961 -10.53112678571713 0
63.50995431436641 -9.467928312938783 0
62.97144991899523 -8.494372719200747 0
62.55971297471667 -7.475336728205627 0
62.67179655879054 -6.387161832094358 0
64.24610706715383 -13.85240428367097 0
64.26625769780679 -12.70228478108245 0
64.50693161841644 -11.60930880852679 0
64.72644617386671 -10.559800320744 0
64.56142711588339 -9.43893720904031 0
64.0601471742404 -8.38902721983494 0
63.6941632362082 -7.295699446360851 0
63.81472169433903 -6.14614417211159 0
65.48117664728974 -14.13401612958777 0
65.52810755528117 -12.91073319805598 0
65.6916102467798 -11.73180071104393 0
65.80328133045198 -10.59425789036222 0
65.59691219028437 -9.404161747398842 0
65.13287162160724 -8.266117948930718 0
64.81265902722883 -7.086747817364218 0
64.94169575607252 -5.864171043924574 0
66.73305304273698 -14.37212480567245 0
66.80675281973325 -13.08804380232731 0
66.89311715687847 -11.83563656663071 0
66.89699070983158 -10.62257164718147 0
66.64928910251506 -9.375530441950165 0
66.22247204292066 -8.161864958520317 0
65.94801129371396 -6.908933960329597 0
66.08552268154762 -5.625700910779979 0
68.0186017392771 -14.47195087953068 0
68.11903087250778 -13.16637646519398 0
68.12837071704276 -11.88017063214973 0
68.02460585616313 -10.6313568432064 0
67.73563279138344 -9.366428827241583 0
67.34598429630279 -8.116914551197663 0
67.11720785926313 -6.830097976457058 0
67.2631813968823 -5.525512868356063 0
69.29848176023876 -14.33822192261285 0
69.42559212564623 -13.07754324774808 0
69.3580461539793 -11.82454701340606 0
69.14683667357988 -10.60715520205984 0
68.8166664572791 -9.390315738157158 0
68.46411960769913 -8.172122877712333 0
68.28094523189419 -6.918427406763747 0
68.43536568387833 -5.65887874022358 0

CELLS 121 521
1 0
1 1
1 2
1 3
2 0 4
2 4 5
2 5 6
2 6 7
2 7 8
2 8 9
2 9 10
2 10 11
2 11 1
2 1 12
2 12 13
2 13 14
2 14 15
2 15 16
2 16 17
2 17 18
2 18 19
2 19 2
2 2 20
2 20 21
2 21 22
2 22 23
2 23 24
2 24 25
2 25 26
2 26 27
2 27 3
2 3 28
2 28 29
2 29 30
2 30 31
2 31 32
2 32 33
2 33 34
2 34 35
2 35 0
4 0 4 36 35
4 35 36 37 34
4 34 37 38 33
4 33 38 39 32
4 32 39 40 31
4 31 40 41 30
4 30 41 42 29
4 29 42 43 28
4 28 43 27 3
4 4 5 44 36
4 36 44 45 37
4 37 45 46 38
4 38 46 47 39
4 39 47 48 40
4 40 48 49 41
4 41 49 50 42
4 42 50 51 43
4 43 51 26 27
4 5 6 52 44
4 44 52 53 45
4 45 53 54 46
4 46 54 55 47
4 47 55 56 48
4 48 56 57 49
4 49 57 58 50
4 50 58 59 51
4 51 59 25 26
4 6 7 60 52
4 52 60 61 53
4 53 61 62 54
4 54 62 63 55
4 55 63 64 56
4 56 64 65 57
4 57 65 66 58
4 58 66 67 59
4 59 67 24 25
4 7 8 68 60
4 60 68 69 61
4 61 69 70 62
4 62 70 71 63
4 63 71 72 64
4 64 72 73 65
4 65 73 74 66
4 66 74 75 67
4 67 75 23 24
4 8 9 76 68
4 68 76 77 69
4 69 77 78 70
4 70 78 79 71
4 71 79 80 72
4 72 80 81 73
4 73 81 82 74
4 74 82 83 75
4 75 83 22 23
4 9 10 84 76
4 76 84 85 77
4 77 85 86 78
4 78 86 87 79
4 79 87 88 80
4 80 88 89 81
4 81 89 90 82
4 82 90 91 83
4 83 91 21 22
4 10 11 92 84
4 84 92 93 85
4 85 93 94 86
4 86 94 95 87
4 87 95 96 88
4 88 96 97 89
4 89 97 98 90
4 90 98 99 91
4 91 99 20 21
4 11 1 12 92
4 92 12 13 93
4 93 13 14 94
4 94 14 15 95
4 95 15 16 96
4 96 16 17 97
4 97 17 18 98
4 98 18 19 99
4 99 19 2 20

CELL_TYPES 121
1
1
1
1
3
3
3
3
3
3
3
3
3
3
3
3
3
3
3
3
3
3
3
3
3
3
3
3
3
3
3
3
3
3
3
3
3
3
3
3
9
9
9
9
9
9
9
9
9
9
9
9
9
9
9
9
9
9
9
9
9
9
9
9
9
9
9
9
9
9
9
9
9
9
9
9
9
9
9
9
9
9
9
9
9
9
9
9
9
9
9
9
9
9
9
9
9
9
9
9
9
9
9
9
9
9
9
9
9
9
9
9
9
9
9
9
9
9
9
9
9

CELL_DATA 121
SCALARS CellEntityIds int 1
LOOKUP_TABLE default
-1
-1
-1
-1
1
1
1
1
1
1
1
1
1
2
2
2
2
2
2
2
2
2
3
3
3
3
3
3
3
3
3
4
4
4
4
4
4
4
4
4
5
5
5
5
5
5
5
5
5
5
5
5
5
5
5
5
5
5
5
5
5
5
5
5
5
5
5
5
5
5
5
5
5
5
5
5
5
5
5
5
5
5
5
5
5
5
5
5
5
5
5
5
5
5
5
5
5
5
5
5
5
5
5
5
5
5
5
5
5
5
5
5
5
5
5
5
5
5
5
5
5
