# vtk DataFile Version 2.0
shape2mesh, Created by Gmsh 4.13.1
ASCII
DATASET UNSTRUCTURED_GRID
POINTS 100 double
0 -15 0
10 -15 0
10 -5 0
4 -8 0
1.111111111111111 -15 0
2.222222222222222 -15 0
3.333333333333333 -15 0
4.444444444444445 -15 0
5.555555555555555 -15 0
6.666666666666666 -15 0
7.777777777777777 -15 0
8.888888888888889 -15 0
10 -13.88888888888889 0
10 -12.77777777777778 0
10 -11.66666666666667 0
10 -10.55555555555556 0
10 -9.444444444444445 0
10 -8.333333333333334 0
10 -7.222222222222223 0
10 -6.111111111111111 0
9.333333333333334 -5.333333333333333 0
8.666666666666666 -5.666666666666667 0
7.999999999999999 -6 0
7.333333333333332 -6.333333333333334 0
6.666666666666666 -6.666666666666667 0
5.999999999999998 -7.000000000000001 0
5.333333333333331 -7.333333333333334 0
4.666666666666664 -7.666666666666668 0
3.555555555555555 -8.777777777777779 0
3.111111111111109 -9.555555555555559 0
2.666666666666664 -10.33333333333334 0
2.222222222222219 -11.11111111111112 0
1.777777777777775 -11.88888888888889 0
1.333333333333331 -12.66666666666667 0
0.8888888888888866 -13.44444444444445 0
0.4444444444444433 -14.22222222222222 0
1.506172839506172 -14.18518518518519 0
1.901234567901232 -13.37037037037037 0
2.296296296296294 -12.55555555555556 0
2.691358024691355 -11.74074074074075 0
3.086419753086416 -10.92592592592593 0
3.48148148148148 -10.11111111111112 0
3.876543209876541 -9.296296296296299 0
4.271604938271603 -8.481481481481481 0
2.5679012345679 -14.14814814814815 0
2.913580246913578 -13.2962962962963 0
3.259259259259258 -12.44444444444445 0
3.604938271604936 -11.5925925925926 0
3.950617283950614 -10.74074074074075 0
4.296296296296294 -9.888888888888893 0
4.641975308641973 -9.03703703703704 0
4.987654320987653 -8.185185185185187 0
3.629629629629629 -14.11111111111111 0
3.925925925925923 -13.22222222222222 0
4.222222222222221 -12.33333333333334 0
4.518518518518516 -11.44444444444445 0
4.814814814814812 -10.55555555555556 0
5.111111111111109 -9.66666666666667 0
5.407407407407406 -8.777777777777779 0
5.703703703703702 -7.88888888888889 0
4.691358024691358 -14.07407407407407 0
4.93827160493827 -13.14814814814815 0
5.185185185185184 -12.22222222222222 0
5.432098765432098 -11.2962962962963 0
5.679012345679011 -10.37037037037037 0
5.925925925925925 -9.444444444444446 0
6.172839506172839 -8.518518518518519 0
6.419753086419753 -7.592592592592593 0
5.753086419753085 -14.03703703703704 0
5.950617283950616 -13.07407407407408 0
6.148148148148147 -12.11111111111111 0
6.345679012345678 -11.14814814814815 0
6.543209876543208 -10.18518518518519 0
6.74074074074074 -9.222222222222225 0
6.93827160493827 -8.259259259259261 0
7.135802469135801 -7.296296296296297 0
6.814814814814814 -14 0
6.962962962962962 -13 0
7.111111111111111 -12 0
7.259259259259258 -11 0
7.407407407407407 -10 0
7.555555555555554 -9.000000000000002 0
7.703703703703703 -8 0
7.851851851851851 -7 0
7.876543209876542 -13.96296296296296 0
7.975308641975307 -12.92592592592593 0
8.074074074074073 -11.88888888888889 0
8.172839506172838 -10.85185185185185 0
8.271604938271604 -9.814814814814817 0
8.37037037037037 -8.777777777777779 0
8.469135802469134 -7.740740740740742 0
8.5679012345679 -6.703703703703702 0
8.93827160493827 -13.92592592592593 0
8.987654320987653 -12.85185185185185 0
9.037037037037038 -11.77777777777778 0
9.086419753086419 -10.7037037037037 0
9.135802469135802 -9.62962962962963 0
9.185185185185185 -8.555555555555557 0
9.234567901234568 -7.481481481481483 0
9.283950617283951 -6.407407407407406 0

CELLS 121 521
1 0
1 1
1 2
1 3
2 0 4
2 4 5
2 5 6
2 6 7
2 7 8
2 8 9
2 9 10
2 10 11
2 11 1
2 1 12
2 12 13
2 13 14
2 14 15
2 15 16
2 16 17
2 17 18
2 18 19
2 19 2
2 2 20
2 20 21
2 21 22
2 22 23
2 23 24
2 24 25
2 25 26
2 26 27
2 27 3
2 3 28
2 28 29
2 29 30
2 30 31
2 31 32
2 32 33
2 33 34
2 34 35
2 35 0
4 0 4 36 35
4 35 36 37 34
4 34 37 38 33
4 33 38 39 32
4 32 39 40 31
4 31 40 41 30
4 30 41 42 29
4 29 42 43 28
4 28 43 27 3
4 4 5 44 36
4 36 44 45 37
4 37 45 46 38
4 38 46 47 39
4 39 47 48 40
4 40 48 49 41
4 41 49 50 42
4 42 50 51 43
4 43 51 26 27
4 5 6 52 44
4 44 52 53 45
4 45 53 54 46
4 46 54 55 47
4 47 55 56 48
4 48 56 57 49
4 49 57 58 50
4 50 58 59 51
4 51 59 25 26
4 6 7 60 52
4 52 60 61 53
4 53 61 62 54
4 54 62 63 55
4 55 63 64 56
4 56 64 65 57
4 57 65 66 58
4 58 66 67 59
4 59 67 24 25
4 7 8 68 60
4 60 68 69 61
4 61 69 70 62
4 62 70 71 63
4 63 71 72 64
4 64 72 73 65
4 65 73 74 66
4 66 74 75 67
4 67 75 23 24
4 8 9 76 68
4 68 76 77 69
4 69 77 78 70
4 70 78 79 71
4 71 79 80 72
4 72 80 81 73
4 73 81 82 74
4 74 82 83 75
4 75 83 22 23
4 9 10 84 76
4 76 84 85 77
4 77 85 86 78
4 78 86 87 79
4 79 87 88 80
4 80 88 89 81
4 81 89 90 82
4 82 90 91 83
4 83 91 21 22
4 10 11 92 84
4 84 92 93 85
4 85 93 94 86
4 86 94 95 87
4 87 95 96 88
4 88 96 97 89
4 89 97 98 90
4 90 98 99 91
4 91 99 20 21
4 11 1 12 92
4 92 12 13 93
4 93 13 14 94
4 94 14 15 95
4 95 15 16 96
4 96 16 17 97
4 97 17 18 98
4 98 18 19 99
4 99 19 2 20

CELL_TYPES 121
1
1
1
1
3
3
3
3
3
3
3
3
3
3
3
3
3
3
3
3
3
3
3
3
3
3
3
3
3
3
3
3
3
3
3
3
3
3
3
3
9
9
9
9
9
9
9
9
9
9
9
9
9
9
9
9
9
9
9
9
9
9
9
9
9
9
9
9
9
9
9
9
9
9
9
9
9
9
9
9
9
9
9
9
9
9
9
9
9
9
9
9
9
9
9
9
9
9
9
9
9
9
9
9
9
9
9
9
9
9
9
9
9
9
9
9
9
9
9
9
9

CELL_DATA 121
SCALARS CellEntityIds int 1
LOOKUP_TABLE default
-1
-1
-1
-1
1
1
1
1
1
1
1
1
1
2
2
2
2
2
2
2
2
2
3
3
3
3
3
3
3
3
3
4
4
4
4
4
4
4
4
4
5
5
5
5
5
5
5
5
5
5
5
5
5
5
5
5
5
5
5
5
5
5
5
5
5
5
5
5
5
5
5
5
5
5
5
5
5
5
5
5
5
5
5
5
5
5
5
5
5
5
5
5
5
5
5
5
5
5
5
5
5
5
5
5
5
5
5
5
5
5
5
5
5
5
5
5
5
5
5
5
5
