# vtk DataFile Version 2.0
shape2mesh, Created by Gmsh 4.13.1
ASCII
DATASET UNSTRUCTURED_GRID
POINTS 343 double
20 -12 0
30 -10 0
30 -5 0
24 -8 0
30 -15 0
37 -10 0
40 -15 0
21.11111111111111 -11.77777777777778 0
22.22222222222223 -11.55555555555555 0
23.33333333333335 -11.33333333333333 0
24.44444444444446 -11.11111111111111 0
25.55555555555557 -10.88888888888889 0
26.66666666666669 -10.66666666666666 0
27.7777777777778 -10.44444444444444 0
28.88888888888891 -10.22222222222222 0
30 -9.444444444444445 0
30 -8.888888888888889 0
30 -8.333333333333334 0
30 -7.777777777777778 0
30 -7.222222222222222 0
30 -6.666666666666667 0
30 -6.111111111111112 0
30 -5.555555555555555 0
29.33333333333333 -5.333333333333333 0
28.66666666666667 -5.666666666666667 0
28 -6 0
27.33333333333333 -6.333333333333334 0
26.66666666666666 -6.666666666666667 0
26 -7.000000000000001 0
25.33333333333333 -7.333333333333334 0
24.66666666666666 -7.666666666666668 0
23.55555555555555 -8.444444444444445 0
23.11111111111111 -8.888888888888891 0
22.66666666666666 -9.333333333333336 0
22.22222222222222 -9.77777777777778 0
21.77777777777778 -10.22222222222222 0
21.33333333333333 -10.66666666666667 0
20.88888888888889 -11.11111111111111 0
20.44444444444444 -11.55555555555556 0
21.11111111111112 -12.33333333333334 0
22.22222222222224 -12.66666666666667 0
23.33333333333336 -13.00000000000001 0
24.44444444444447 -13.33333333333334 0
25.55555555555559 -13.66666666666668 0
26.66666666666671 -14.00000000000001 0
27.77777777777782 -14.33333333333335 0
28.88888888888894 -14.66666666666668 0
30 -14.44444444444444 0
30 -13.88888888888889 0
30 -13.33333333333333 0
30 -12.77777777777778 0
30 -12.22222222222222 0
30 -11.66666666666667 0
30 -11.11111111111111 0
30 -10.55555555555556 0
30.77777777777778 -10 0
31.55555555555556 -10 0
32.33333333333334 -10 0
33.11111111111111 -10 0
33.88888888888889 -10 0
34.66666666666666 -10 0
35.44444444444444 -10 0
36.22222222222222 -10 0
37.33333333333334 -10.55555555555556 0
37.66666666666666 -11.11111111111111 0
38 -11.66666666666667 0
38.33333333333334 -12.22222222222222 0
38.66666666666667 -12.77777777777778 0
39 -13.33333333333334 0
39.33333333333334 -13.88888888888889 0
39.66666666666667 -14.44444444444445 0
38.88888888888889 -15 0
37.77777777777778 -15 0
36.66666666666666 -15 0
35.55555555555556 -15 0
34.44444444444444 -15 0
33.33333333333334 -15 0
32.22222222222222 -15 0
31.11111111111111 -15 0
36.22222222222222 -9.444444444444443 0
35.44444444444444 -8.888888888888886 0
34.66666666666666 -8.333333333333329 0
33.88888888888888 -7.777777777777773 0
33.1111111111111 -7.222222222222217 0
32.33333333333333 -6.666666666666663 0
31.55555555555555 -6.111111111111107 0
30.77777777777777 -5.555555555555552 0
21.50617283950617 -11.32098765432099 0
21.90123456790123 -10.8641975308642 0
22.29629629629629 -10.40740740740741 0
22.69135802469135 -9.950617283950619 0
23.08641975308642 -9.493827160493829 0
23.48148148148148 -9.03703703703704 0
23.87654320987654 -8.580246913580249 0
24.2716049382716 -8.123456790123457 0
22.5679012345679 -11.08641975308642 0
22.91358024691358 -10.61728395061728 0
23.25925925925926 -10.14814814814815 0
23.60493827160494 -9.679012345679013 0
23.95061728395061 -9.209876543209878 0
24.29629629629629 -8.740740740740742 0
24.64197530864197 -8.271604938271606 0
24.98765432098765 -7.80246913580247 0
23.62962962962963 -10.85185185185185 0
23.92592592592593 -10.37037037037037 0
24.22222222222222 -9.888888888888889 0
24.51851851851852 -9.407407407407408 0
24.81481481481481 -8.925925925925927 0
25.11111111111111 -8.444444444444446 0
25.4074074074074 -7.962962962962965 0
25.7037037037037 -7.481481481481483 0
24.69135802469136 -10.61728395061728 0
24.93827160493827 -10.12345679012346 0
25.18518518518518 -9.62962962962963 0
25.4320987654321 -9.135802469135802 0
25.67901234567901 -8.641975308641976 0
25.92592592592592 -8.148148148148149 0
26.17283950617284 -7.654320987654322 0
26.41975308641975 -7.160493827160494 0
25.75308641975309 -10.38271604938272 0
25.95061728395062 -9.876543209876543 0
26.14814814814815 -9.37037037037037 0
26.34567901234568 -8.864197530864198 0
26.54320987654321 -8.358024691358025 0
26.74074074074074 -7.851851851851853 0
26.93827160493827 -7.345679012345681 0
27.1358024691358 -6.839506172839506 0
26.81481481481481 -10.14814814814815 0
26.96296296296296 -9.62962962962963 0
27.11111111111111 -9.111111111111111 0
27.25925925925926 -8.592592592592593 0
27.4074074074074 -8.074074074074074 0
27.55555555555555 -7.555555555555557 0
27.7037037037037 -7.037037037037038 0
27.85185185185185 -6.518518518518519 0
27.87654320987654 -9.913580246913581 0
27.97530864197531 -9.382716049382717 0
28.07407407407407 -8.851851851851853 0
28.17283950617284 -8.320987654320987 0
28.2716049382716 -7.790123456790123 0
28.37037037037037 -7.25925925925926 0
28.46913580246913 -6.728395061728396 0
28.5679012345679 -6.197530864197531 0
28.93827160493827 -9.679012345679013 0
28.98765432098765 -9.135802469135802 0
29.03703703703703 -8.592592592592593 0
29.08641975308642 -8.049382716049383 0
29.1358024691358 -7.506172839506173 0
29.18518518518518 -6.962962962962964 0
29.23456790123457 -6.419753086419755 0
29.28395061728395 -5.876543209876543 0
21.11111111111111 -12.27160493827161 0
21.11111111111111 -12.20987654320988 0
21.11111111111111 -12.14814814814815 0
21.11111111111111 -12.08641975308642 0
21.11111111111111 -12.02469135802469 0
21.11111111111111 -11.96296296296296 0
21.11111111111111 -11.90123456790123 0
21.11111111111111 -11.83950617283951 0
22.22222222222222 -12.54320987654321 0
22.22222222222222 -12.41975308641975 0
22.22222222222222 -12.2962962962963 0
22.22222222222222 -12.17283950617284 0
22.22222222222222 -12.04938271604938 0
22.22222222222222 -11.92592592592593 0
22.22222222222222 -11.80246913580247 0
22.22222222222222 -11.67901234567901 0
23.33333333333334 -12.81481481481482 0
23.33333333333334 -12.62962962962963 0
23.33333333333334 -12.44444444444445 0
23.33333333333334 -12.25925925925926 0
23.33333333333334 -12.07407407407407 0
23.33333333333334 -11.88888888888889 0
23.33333333333334 -11.7037037037037 0
23.33333333333334 -11.51851851851852 0
24.44444444444445 -13.08641975308642 0
24.44444444444445 -12.83950617283951 0
24.44444444444445 -12.5925925925926 0
24.44444444444445 -12.34567901234568 0
24.44444444444445 -12.09876543209877 0
24.44444444444445 -11.85185185185185 0
24.44444444444445 -11.60493827160494 0
24.44444444444445 -11.35802469135803 0
25.55555555555556 -13.35802469135803 0
25.55555555555556 -13.04938271604938 0
25.55555555555556 -12.74074074074074 0
25.55555555555556 -12.4320987654321 0
25.55555555555556 -12.12345679012346 0
25.55555555555556 -11.81481481481481 0
25.55555555555556 -11.50617283950617 0
25.55555555555556 -11.19753086419753 0
26.66666666666667 -13.62962962962963 0
26.66666666666667 -13.25925925925926 0
26.66666666666667 -12.88888888888889 0
26.66666666666667 -12.51851851851852 0
26.66666666666667 -12.14814814814815 0
26.66666666666667 -11.77777777777778 0
26.66666666666667 -11.40740740740741 0
26.66666666666667 -11.03703703703704 0
27.77777777777778 -13.90123456790124 0
27.77777777777778 -13.46913580246914 0
27.77777777777778 -13.03703703703704 0
27.77777777777778 -12.60493827160494 0
27.77777777777778 -12.17283950617284 0
27.77777777777778 -11.74074074074074 0
27.77777777777778 -11.30864197530864 0
27.77777777777778 -10.87654320987654 0
28.88888888888889 -14.17283950617284 0
28.88888888888889 -13.67901234567901 0
28.88888888888889 -13.18518518518519 0
28.88888888888889 -12.69135802469136 0
28.88888888888889 -12.19753086419753 0
28.88888888888889 -11.7037037037037 0
28.88888888888889 -11.20987654320988 0
28.88888888888889 -10.71604938271605 0
38.5925925925926 -14.44444444444444 0
38.2962962962963 -13.88888888888889 0
38 -13.33333333333334 0
37.7037037037037 -12.77777777777778 0
37.4074074074074 -12.22222222222222 0
37.11111111111111 -11.66666666666667 0
36.81481481481481 -11.11111111111111 0
36.51851851851852 -10.55555555555556 0
37.51851851851852 -14.44444444444444 0
37.25925925925926 -13.88888888888889 0
37 -13.33333333333334 0
36.74074074074074 -12.77777777777778 0
36.48148148148148 -12.22222222222222 0
36.22222222222222 -11.66666666666667 0
35.96296296296296 -11.11111111111111 0
35.7037037037037 -10.55555555555556 0
36.44444444444444 -14.44444444444444 0
36.22222222222222 -13.88888888888889 0
36 -13.33333333333334 0
35.77777777777778 -12.77777777777778 0
35.55555555555556 -12.22222222222222 0
35.33333333333333 -11.66666666666667 0
35.11111111111111 -11.11111111111111 0
34.88888888888889 -10.55555555555556 0
35.37037037037037 -14.44444444444444 0
35.18518518518518 -13.88888888888889 0
35 -13.33333333333333 0
34.81481481481482 -12.77777777777778 0
34.62962962962963 -12.22222222222222 0
34.44444444444444 -11.66666666666667 0
34.25925925925926 -11.11111111111111 0
34.07407407407407 -10.55555555555556 0
34.2962962962963 -14.44444444444444 0
34.14814814814815 -13.88888888888889 0
34 -13.33333333333333 0
33.85185185185185 -12.77777777777778 0
33.7037037037037 -12.22222222222222 0
33.55555555555556 -11.66666666666667 0
33.4074074074074 -11.11111111111111 0
33.25925925925926 -10.55555555555556 0
33.22222222222222 -14.44444444444444 0
33.11111111111111 -13.88888888888889 0
33 -13.33333333333333 0
32.88888888888889 -12.77777777777778 0
32.77777777777778 -12.22222222222222 0
32.66666666666666 -11.66666666666667 0
32.55555555555556 -11.11111111111111 0
32.44444444444444 -10.55555555555556 0
32.14814814814815 -14.44444444444444 0
32.07407407407408 -13.88888888888889 0
32 -13.33333333333333 0
31.92592592592593 -12.77777777777778 0
31.85185185185185 -12.22222222222222 0
31.77777777777778 -11.66666666666667 0
31.7037037037037 -11.11111111111111 0
31.62962962962963 -10.55555555555556 0
31.07407407407407 -14.44444444444444 0
31.03703703703703 -13.88888888888889 0
31 -13.33333333333333 0
30.96296296296296 -12.77777777777778 0
30.92592592592592 -12.22222222222222 0
30.88888888888889 -11.66666666666667 0
30.85185185185185 -11.11111111111111 0
30.81481481481481 -10.55555555555555 0
30.69135802469136 -9.938271604938272 0
30.60493827160494 -9.876543209876543 0
30.51851851851852 -9.814814814814815 0
30.4320987654321 -9.753086419753085 0
30.34567901234568 -9.691358024691358 0
30.25925925925926 -9.62962962962963 0
30.17283950617284 -9.5679012345679 0
30.08641975308642 -9.506172839506172 0
31.38271604938272 -9.876543209876543 0
31.20987654320988 -9.753086419753085 0
31.03703703703703 -9.629629629629628 0
30.8641975308642 -9.506172839506172 0
30.69135802469136 -9.382716049382715 0
30.51851851851852 -9.259259259259258 0
30.34567901234568 -9.135802469135802 0
30.17283950617284 -9.012345679012345 0
32.07407407407408 -9.814814814814815 0
31.81481481481481 -9.62962962962963 0
31.55555555555555 -9.444444444444443 0
31.29629629629629 -9.259259259259258 0
31.03703703703703 -9.074074074074073 0
30.77777777777778 -8.888888888888888 0
30.51851851851852 -8.703703703703702 0
30.25925925925926 -8.518518518518517 0
32.76543209876543 -9.753086419753085 0
32.41975308641975 -9.506172839506172 0
32.07407407407407 -9.259259259259258 0
31.72839506172839 -9.012345679012343 0
31.38271604938271 -8.76543209876543 0
31.03703703703703 -8.518518518518515 0
30.69135802469135 -8.271604938271603 0
30.34567901234568 -8.02469135802469 0
33.45679012345679 -9.691358024691358 0
33.02469135802469 -9.382716049382715 0
32.59259259259259 -9.074074074074073 0
32.16049382716049 -8.76543209876543 0
31.72839506172839 -8.456790123456788 0
31.29629629629629 -8.148148148148145 0
30.86419753086419 -7.839506172839504 0
30.4320987654321 -7.530864197530862 0
34.14814814814815 -9.62962962962963 0
33.62962962962963 -9.259259259259258 0
33.11111111111111 -8.888888888888886 0
32.59259259259259 -8.518518518518515 0
32.07407407407407 -8.148148148148145 0
31.55555555555555 -7.777777777777775 0
31.03703703703703 -7.407407407407405 0
30.51851851851852 -7.037037037037035 0
34.83950617283951 -9.5679012345679 0
34.23456790123456 -9.1358024691358 0
33.62962962962963 -8.703703703703701 0
33.02469135802468 -8.271604938271601 0
32.41975308641975 -7.839506172839503 0
31.81481481481481 -7.407407407407404 0
31.20987654320987 -6.975308641975305 0
30.60493827160494 -6.543209876543207 0
35.53086419753086 -9.506172839506172 0
34.8395061728395 -9.012345679012343 0
34.14814814814815 -8.518518518518515 0
33.45679012345678 -8.024691358024686 0
32.76543209876542 -7.530864197530859 0
32.07407407407407 -7.037037037037033 0
31.38271604938271 -6.543209876543205 0
30.69135802469135 -6.049382716049379 0

CELLS 421 1886
1 0
1 1
1 2
1 3
1 4
1 5
1 6
2 0 7
2 7 8
2 8 9
2 9 10
2 10 11
2 11 12
2 12 13
2 13 14
2 14 1
2 1 15
2 15 16
2 16 17
2 17 18
2 18 19
2 19 20
2 20 21
2 21 22
2 22 2
2 2 23
2 23 24
2 24 25
2 25 26
2 26 27
2 27 28
2 28 29
2 29 30
2 30 3
2 3 31
2 31 32
2 32 33
2 33 34
2 34 35
2 35 36
2 36 37
2 37 38
2 38 0
2 0 39
2 39 40
2 40 41
2 41 42
2 42 43
2 43 44
2 44 45
2 45 46
2 46 4
2 4 47
2 47 48
2 48 49
2 49 50
2 50 51
2 51 52
2 52 53
2 53 54
2 54 1
2 1 55
2 55 56
2 56 57
2 57 58
2 58 59
2 59 60
2 60 61
2 61 62
2 62 5
2 5 63
2 63 64
2 64 65
2 65 66
2 66 67
2 67 68
2 68 69
2 69 70
2 70 6
2 6 71
2 71 72
2 72 73
2 73 74
2 74 75
2 75 76
2 76 77
2 77 78
2 78 4
2 5 79
2 79 80
2 80 81
2 81 82
2 82 83
2 83 84
2 84 85
2 85 86
2 86 2
4 0 7 87 38
4 38 87 88 37
4 37 88 89 36
4 36 89 90 35
4 35 90 91 34
4 34 91 92 33
4 33 92 93 32
4 32 93 94 31
4 31 94 30 3
4 7 8 95 87
4 87 95 96 88
4 88 96 97 89
4 89 97 98 90
4 90 98 99 91
4 91 99 100 92
4 92 100 101 93
4 93 101 102 94
4 94 102 29 30
4 8 9 103 95
4 95 103 104 96
4 96 104 105 97
4 97 105 106 98
4 98 106 107 99
4 99 107 108 100
4 100 108 109 101
4 101 109 110 102
4 102 110 28 29
4 9 10 111 103
4 103 111 112 104
4 104 112 113 105
4 105 113 114 106
4 106 114 115 107
4 107 115 116 108
4 108 116 117 109
4 109 117 118 110
4 110 118 27 28
4 10 11 119 111
4 111 119 120 112
4 112 120 121 113
4 113 121 122 114
4 114 122 123 115
4 115 123 124 116
4 116 124 125 117
4 117 125 126 118
4 118 126 26 27
4 11 12 127 119
4 119 127 128 120
4 120 128 129 121
4 121 129 130 122
4 122 130 131 123
4 123 131 132 124
4 124 132 133 125
4 125 133 134 126
4 126 134 25 26
4 12 13 135 127
4 127 135 136 128
4 128 136 137 129
4 129 137 138 130
4 130 138 139 131
4 131 139 140 132
4 132 140 141 133
4 133 141 142 134
4 134 142 24 25
4 13 14 143 135
4 135 143 144 136
4 136 144 145 137
4 137 145 146 138
4 138 146 147 139
4 139 147 148 140
4 140 148 149 141
4 141 149 150 142
4 142 150 23 24
4 14 1 15 143
4 143 15 16 144
4 144 16 17 145
4 145 17 18 146
4 146 18 19 147
4 147 19 20 148
4 148 20 21 149
4 149 21 22 150
4 150 22 2 23
3 0 39 151
3 0 151 152
3 0 152 153
3 0 153 154
3 0 154 155
3 0 155 156
3 0 156 157
3 0 157 158
3 0 158 7
4 39 40 159 151
4 151 159 160 152
4 152 160 161 153
4 153 161 162 154
4 154 162 163 155
4 155 163 164 156
4 156 164 165 157
4 157 165 166 158
4 158 166 8 7
4 40 41 167 159
4 159 167 168 160
4 160 168 169 161
4 161 169 170 162
4 162 170 171 163
4 163 171 172 164
4 164 172 173 165
4 165 173 174 166
4 166 174 9 8
4 41 42 175 167
4 167 175 176 168
4 168 176 177 169
4 169 177 178 170
4 170 178 179 171
4 171 179 180 172
4 172 180 181 173
4 173 181 182 174
4 174 182 10 9
4 42 43 183 175
4 175 183 184 176
4 176 184 185 177
4 177 185 186 178
4 178 186 187 179
4 179 187 188 180
4 180 188 189 181
4 181 189 190 182
4 182 190 11 10
4 43 44 191 183
4 183 191 192 184
4 184 192 193 185
4 185 193 194 186
4 186 194 195 187
4 187 195 196 188
4 188 196 197 189
4 189 197 198 190
4 190 198 12 11
4 44 45 199 191
4 191 199 200 192
4 192 200 201 193
4 193 201 202 194
4 194 202 203 195
4 195 203 204 196
4 196 204 205 197
4 197 205 206 198
4 198 206 13 12
4 45 46 207 199
4 199 207 208 200
4 200 208 209 201
4 201 209 210 202
4 202 210 211 203
4 203 211 212 204
4 204 212 213 205
4 205 213 214 206
4 206 214 14 13
4 46 4 47 207
4 207 47 48 208
4 208 48 49 209
4 209 49 50 210
4 210 50 51 211
4 211 51 52 212
4 212 52 53 213
4 213 53 54 214
4 214 54 1 14
4 6 70 215 71
4 70 69 216 215
4 69 68 217 216
4 68 67 218 217
4 67 66 219 218
4 66 65 220 219
4 65 64 221 220
4 64 63 222 221
4 63 5 62 222
4 71 215 223 72
4 215 216 224 223
4 216 217 225 224
4 217 218 226 225
4 218 219 227 226
4 219 220 228 227
4 220 221 229 228
4 221 222 230 229
4 222 62 61 230
4 72 223 231 73
4 223 224 232 231
4 224 225 233 232
4 225 226 234 233
4 226 227 235 234
4 227 228 236 235
4 228 229 237 236
4 229 230 238 237
4 230 61 60 238
4 73 231 239 74
4 231 232 240 239
4 232 233 241 240
4 233 234 242 241
4 234 235 243 242
4 235 236 244 243
4 236 237 245 244
4 237 238 246 245
4 238 60 59 246
4 74 239 247 75
4 239 240 248 247
4 240 241 249 248
4 241 242 250 249
4 242 243 251 250
4 243 244 252 251
4 244 245 253 252
4 245 246 254 253
4 246 59 58 254
4 75 247 255 76
4 247 248 256 255
4 248 249 257 256
4 249 250 258 257
4 250 251 259 258
4 251 252 260 259
4 252 253 261 260
4 253 254 262 261
4 254 58 57 262
4 76 255 263 77
4 255 256 264 263
4 256 257 265 264
4 257 258 266 265
4 258 259 267 266
4 259 260 268 267
4 260 261 269 268
4 261 262 270 269
4 262 57 56 270
4 77 263 271 78
4 263 264 272 271
4 264 265 273 272
4 265 266 274 273
4 266 267 275 274
4 267 268 276 275
4 268 269 277 276
4 269 270 278 277
4 270 56 55 278
4 78 271 47 4
4 271 272 48 47
4 272 273 49 48
4 273 274 50 49
4 274 275 51 50
4 275 276 52 51
4 276 277 53 52
4 277 278 54 53
4 278 55 1 54
3 1 55 279
3 1 279 280
3 1 280 281
3 1 281 282
3 1 282 283
3 1 283 284
3 1 284 285
3 1 285 286
3 1 286 15
4 55 56 287 279
4 279 287 288 280
4 280 288 289 281
4 281 289 290 282
4 282 290 291 283
4 283 291 292 284
4 284 292 293 285
4 285 293 294 286
4 286 294 16 15
4 56 57 295 287
4 287 295 296 288
4 288 296 297 289
4 289 297 298 290
4 290 298 299 291
4 291 299 300 292
4 292 300 301 293
4 293 301 302 294
4 294 302 17 16
4 57 58 303 295
4 295 303 304 296
4 296 304 305 297
4 297 305 306 298
4 298 306 307 299
4 299 307 308 300
4 300 308 309 301
4 301 309 310 302
4 302 310 18 17
4 58 59 311 303
4 303 311 312 304
4 304 312 313 305
4 305 313 314 306
4 306 314 315 307
4 307 315 316 308
4 308 316 317 309
4 309 317 318 310
4 310 318 19 18
4 59 60 319 311
4 311 319 320 312
4 312 320 321 313
4 313 321 322 314
4 314 322 323 315
4 315 323 324 316
4 316 324 325 317
4 317 325 326 318
4 318 326 20 19
4 60 61 327 319
4 319 327 328 320
4 320 328 329 321
4 321 329 330 322
4 322 330 331 323
4 323 331 332 324
4 324 332 333 325
4 325 333 334 326
4 326 334 21 20
4 61 62 335 327
4 327 335 336 328
4 328 336 337 329
4 329 337 338 330
4 330 338 339 331
4 331 339 340 332
4 332 340 341 333
4 333 341 342 334
4 334 342 22 21
4 62 5 79 335
4 335 79 80 336
4 336 80 81 337
4 337 81 82 338
4 338 82 83 339
4 339 83 84 340
4 340 84 85 341
4 341 85 86 342
4 342 86 2 22

CELL_TYPES 421
1
1
1
1
1
1
1
3
3
3
3
3
3
3
3
3
3
3
3
3
3
3
3
3
3
3
3
3
3
3
3
3
3
3
3
3
3
3
3
3
3
3
3
3
3
3
3
3
3
3
3
3
3
3
3
3
3
3
3
3
3
3
3
3
3
3
3
3
3
3
3
3
3
3
3
3
3
3
3
3
3
3
3
3
3
3
3
3
3
3
3
3
3
3
3
3
3
9
9
9
9
9
9
9
9
9
9
9
9
9
9
9
9
9
9
9
9
9
9
9
9
9
9
9
9
9
9
9
9
9
9
9
9
9
9
9
9
9
9
9
9
9
9
9
9
9
9
9
9
9
9
9
9
9
9
9
9
9
9
9
9
9
9
9
9
9
9
9
9
9
9
9
9
9
9
9
9
9
5
5
5
5
5
5
5
5
5
9
9
9
9
9
9
9
9
9
9
9
9
9
9
9
9
9
9
9
9
9
9
9
9
9
9
9
9
9
9
9
9
9
9
9
9
9
9
9
9
9
9
9
9
9
9
9
9
9
9
9
9
9
9
9
9
9
9
9
9
9
9
9
9
9
9
9
9
9
9
9
9
9
9
9
9
9
9
9
9
9
9
9
9
9
9
9
9
9
9
9
9
9
9
9
9
9
9
9
9
9
9
9
9
9
9
9
9
9
9
9
9
9
9
9
9
9
9
9
9
9
9
9
9
9
9
9
9
9
9
9
9
9
9
9
9
9
9
9
9
9
9
9
9
9
9
9
9
9
9
9
9
9
5
5
5
5
5
5
5
5
5
9
9
9
9
9
9
9
9
9
9
9
9
9
9
9
9
9
9
9
9
9
9
9
9
9
9
9
9
9
9
9
9
9
9
9
9
9
9
9
9
9
9
9
9
9
9
9
9
9
9
9
9
9
9
9
9
9
9
9
9
9
9
9
9
9
9
9
9
9
9
9
9

CELL_DATA 421
SCALARS CellEntityIds int 1
LOOKUP_TABLE default
-1
-1
-1
-1
-1
-1
-1
1
1
1
1
1
1
1
1
1
3
3
3
3
3
3
3
3
3
4
4
4
4
4
4
4
4
4
5
5
5
5
5
5
5
5
5
6
6
6
6
6
6
6
6
6
7
7
7
7
7
7
7
7
7
8
8
8
8
8
8
8
8
8
9
9
9
9
9
9
9
9
9
10
10
10
10
10
10
10
10
10
2
2
2
2
2
2
2
2
2
11
11
11
11
11
11
11
11
11
11
11
11
11
11
11
11
11
11
11
11
11
11
11
11
11
11
11
11
11
11
11
11
11
11
11
11
11
11
11
11
11
11
11
11
11
11
11
11
11
11
11
11
11
11
11
11
11
11
11
11
11
11
11
11
11
11
11
11
11
11
11
11
11
11
11
11
11
11
11
11
11
12
12
12
12
12
12
12
12
12
12
12
12
12
12
12
12
12
12
12
12
12
12
12
12
12
12
12
12
12
12
12
12
12
12
12
12
12
12
12
12
12
12
12
12
12
12
12
12
12
12
12
12
12
12
12
12
12
12
12
12
12
12
12
12
12
12
12
12
12
12
12
12
12
12
12
12
12
12
12
12
12
13
13
13
13
13
13
13
13
13
13
13
13
13
13
13
13
13
13
13
13
13
13
13
13
13
13
13
13
13
13
13
13
13
13
13
13
13
13
13
13
13
13
13
13
13
13
13
13
13
13
13
13
13
13
13
13
13
13
13
13
13
13
13
13
13
13
13
13
13
13
13
13
13
13
13
13
13
13
13
13
13
14
14
14
14
14
14
14
14
14
14
14
14
14
14
14
14
14
14
14
14
14
14
14
14
14
14
14
14
14
14
14
14
14
14
14
14
14
14
14
14
14
14
14
14
14
14
14
14
14
14
14
14
14
14
14
14
14
14
14
14
14
14
14
14
14
14
14
14
14
14
14
14
14
14
14
14
14
14
14
14
14
