# vtk DataFile Version 2.0
shape2mesh, Created by Gmsh 4.13.1
ASCII
DATASET UNSTRUCTURED_GRID
POINTS 100 double
30 -15 0
40 -15 0
40 -5 0
30 -5 0
32.08954940491923 -15 0
33.23372165762451 -15 0
34.03307456827901 -15 0
34.69089788497509 -15 0
35.3091021150249 -15 0
35.96692543172098 -15 0
36.76627834237548 -15 0
37.91045059508077 -15 0
40 -14.51993300151695 0
40 -13.71838193858064 0
40 -12.50000000807608 0
40 -10.88907321758423 0
40 -9.110926782415749 0
40 -7.499999991923896 0
40 -6.281618061419355 0
40 -5.480066998483046 0
37.91045059508077 -5 0
36.76627834237549 -5 0
35.96692543172099 -5 0
35.30910211502491 -5 0
34.6908978849751 -5 0
34.03307456827902 -5 0
33.23372165762452 -5 0
32.08954940491923 -5 0
30 -5.480066998483052 0
30 -6.281618061419358 0
30 -7.499999991923916 0
30 -9.110926782415767 0
30 -10.88907321758425 0
30 -12.5000000080761 0
30 -13.71838193858065 0
30 -14.51993300151695 0
32.08954940491923 -14.51993300151695 0
32.08954940491923 -13.71838193858065 0
32.08954940491923 -12.5000000080761 0
32.08954940491923 -10.88907321758425 0
32.08954940491923 -9.110926782415763 0
32.08954940491923 -7.499999991923912 0
32.08954940491923 -6.281618061419358 0
32.08954940491923 -5.48006699848305 0
33.23372165762451 -14.51993300151695 0
33.23372165762451 -13.71838193858065 0
33.23372165762451 -12.5000000080761 0
33.23372165762451 -10.88907321758425 0
33.23372165762451 -9.110926782415762 0
33.23372165762452 -7.499999991923909 0
33.23372165762452 -6.281618061419358 0
33.23372165762452 -5.48006699848305 0
34.03307456827901 -14.51993300151695 0
34.03307456827901 -13.71838193858065 0
34.03307456827901 -12.5000000080761 0
34.03307456827901 -10.88907321758424 0
34.03307456827902 -9.11092678241576 0
34.03307456827902 -7.499999991923907 0
34.03307456827902 -6.281618061419357 0
34.03307456827902 -5.48006699848305 0
34.69089788497509 -14.51993300151695 0
34.69089788497509 -13.71838193858065 0
34.69089788497509 -12.50000000807609 0
34.69089788497509 -10.88907321758424 0
34.6908978849751 -9.11092678241576 0
34.6908978849751 -7.499999991923906 0
34.6908978849751 -6.281618061419357 0
34.6908978849751 -5.48006699848305 0
35.3091021150249 -14.51993300151695 0
35.3091021150249 -13.71838193858064 0
35.3091021150249 -12.50000000807609 0
35.3091021150249 -10.88907321758424 0
35.30910211502491 -9.110926782415758 0
35.30910211502491 -7.499999991923906 0
35.30910211502491 -6.281618061419357 0
35.30910211502491 -5.48006699848305 0
35.96692543172098 -14.51993300151695 0
35.96692543172098 -13.71838193858064 0
35.96692543172098 -12.50000000807609 0
35.96692543172098 -10.88907321758424 0
35.96692543172099 -9.110926782415756 0
35.96692543172099 -7.499999991923904 0
35.96692543172099 -6.281618061419357 0
35.96692543172099 -5.480066998483048 0
36.76627834237548 -14.51993300151695 0
36.76627834237548 -13.71838193858064 0
36.76627834237548 -12.50000000807609 0
36.76627834237549 -10.88907321758424 0
36.76627834237549 -9.110926782415756 0
36.76627834237549 -7.499999991923902 0
36.76627834237549 -6.281618061419356 0
36.76627834237549 -5.480066998483048 0
37.91045059508077 -14.51993300151695 0
37.91045059508077 -13.71838193858064 0
37.91045059508077 -12.50000000807609 0
37.91045059508077 -10.88907321758424 0
37.91045059508077 -9.110926782415753 0
37.91045059508077 -7.4999999919239 0
37.91045059508077 -6.281618061419356 0
37.91045059508077 -5.480066998483046 0

CELLS 121 521
1 0
1 1
1 2
1 3
2 0 4
2 4 5
2 5 6
2 6 7
2 7 8
2 8 9
2 9 10
2 10 11
2 11 1
2 1 12
2 12 13
2 13 14
2 14 15
2 15 16
2 16 17
2 17 18
2 18 19
2 19 2
2 2 20
2 20 21
2 21 22
2 22 23
2 23 24
2 24 25
2 25 26
2 26 27
2 27 3
2 3 28
2 28 29
2 29 30
2 30 31
2 31 32
2 32 33
2 33 34
2 34 35
2 35 0
4 0 4 36 35
4 35 36 37 34
4 34 37 38 33
4 33 38 39 32
4 32 39 40 31
4 31 40 41 30
4 30 41 42 29
4 29 42 43 28
4 28 43 27 3
4 4 5 44 36
4 36 44 45 37
4 37 45 46 38
4 38 46 47 39
4 39 47 48 40
4 40 48 49 41
4 41 49 50 42
4 42 50 51 43
4 43 51 26 27
4 5 6 52 44
4 44 52 53 45
4 45 53 54 46
4 46 54 55 47
4 47 55 56 48
4 48 56 57 49
4 49 57 58 50
4 50 58 59 51
4 51 59 25 26
4 6 7 60 52
4 52 60 61 53
4 53 61 62 54
4 54 62 63 55
4 55 63 64 56
4 56 64 65 57
4 57 65 66 58
4 58 66 67 59
4 59 67 24 25
4 7 8 68 60
4 60 68 69 61
4 61 69 70 62
4 62 70 71 63
4 63 71 72 64
4 64 72 73 65
4 65 73 74 66
4 66 74 75 67
4 67 75 23 24
4 8 9 76 68
4 68 76 77 69
4 69 77 78 70
4 70 78 79 71
4 71 79 80 72
4 72 80 81 73
4 73 81 82 74
4 74 82 83 75
4 75 83 22 23
4 9 10 84 76
4 76 84 85 77
4 77 85 86 78
4 78 86 87 79
4 79 87 88 80
4 80 88 89 81
4 81 89 90 82
4 82 90 91 83
4 83 91 21 22
4 10 11 92 84
4 84 92 93 85
4 85 93 94 86
4 86 94 95 87
4 87 95 96 88
4 88 96 97 89
4 89 97 98 90
4 90 98 99 91
4 91 99 20 21
4 11 1 12 92
4 92 12 13 93
4 93 13 14 94
4 94 14 15 95
4 95 15 16 96
4 96 16 17 97
4 97 17 18 98
4 98 18 19 99
4 99 19 2 20

CELL_TYPES 121
1
1
1
1
3
3
3
3
3
3
3
3
3
3
3
3
3
3
3
3
3
3
3
3
3
3
3
3
3
3
3
3
3
3
3
3
3
3
3
3
9
9
9
9
9
9
9
9
9
9
9
9
9
9
9
9
9
9
9
9
9
9
9
9
9
9
9
9
9
9
9
9
9
9
9
9
9
9
9
9
9
9
9
9
9
9
9
9
9
9
9
9
9
9
9
9
9
9
9
9
9
9
9
9
9
9
9
9
9
9
9
9
9
9
9
9
9
9
9
9
9

CELL_DATA 121
SCALARS CellEntityIds int 1
LOOKUP_TABLE default
-1
-1
-1
-1
1
1
1
1
1
1
1
1
1
2
2
2
2
2
2
2
2
2
3
3
3
3
3
3
3
3
3
4
4
4
4
4
4
4
4
4
5
5
5
5
5
5
5
5
5
5
5
5
5
5
5
5
5
5
5
5
5
5
5
5
5
5
5
5
5
5
5
5
5
5
5
5
5
5
5
5
5
5
5
5
5
5
5
5
5
5
5
5
5
5
5
5
5
5
5
5
5
5
5
5
5
5
5
5
5
5
5
5
5
5
5
5
5
5
5
5
5
