# vtk DataFile Version 2.0
shape2mesh, Created by Gmsh 4.13.1 
ASCII
DATASET UNSTRUCTURED_GRID
POINTS 49 double
15 -15 0
25 -15 0
25 -5 0
15 -5 0
16.66666666666667 -15 0
18.33333333333333 -15 0
20 -15 0
21.66666666666667 -15 0
23.33333333333334 -15 0
25 -13.33333333333333 0
25 -11.66666666666667 0
25 -10 0
25 -8.333333333333332 0
25 -6.666666666666666 0
23.33333333333333 -5 0
21.66666666666667 -5 0
20 -5 0
18.33333333333333 -5 0
16.66666666666666 -5 0
15 -6.666666666666667 0
15 -8.333333333333334 0
15 -10 0
15 -11.66666666666667 0
15 -13.33333333333333 0
16.66666666666667 -13.33333333333333 0
16.66666666666667 -11.66666666666667 0
16.66666666666667 -10 0
16.66666666666666 -8.333333333333334 0
16.66666666666666 -6.666666666666667 0
18.33333333333333 -13.33333333333333 0
18.33333333333333 -11.66666666666667 0
18.33333333333333 -10 0
18.33333333333333 -8.333333333333332 0
18.33333333333333 -6.666666666666667 0
20 -13.33333333333333 0
20 -11.66666666666667 0
20 -10 0
20 -8.333333333333334 0
20 -6.666666666666666 0
21.66666666666667 -13.33333333333333 0
21.66666666666667 -11.66666666666667 0
21.66666666666666 -10 0
21.66666666666667 -8.333333333333332 0
21.66666666666667 -6.666666666666666 0
23.33333333333334 -13.33333333333333 0
23.33333333333333 -11.66666666666667 0
23.33333333333334 -10 0
23.33333333333333 -8.333333333333332 0
23.33333333333333 -6.666666666666666 0

CELLS 64 260
1 0
1 1
1 2
1 3
2 0 4
2 4 5
2 5 6
2 6 7
2 7 8
2 8 1
2 1 9
2 9 10
2 10 11
2 11 12
2 12 13
2 13 2
2 2 14
2 14 15
2 15 16
2 16 17
2 17 18
2 18 3
2 3 19
2 19 20
2 20 21
2 21 22
2 22 23
2 23 0
4 0 4 24 23
4 23 24 25 22
4 22 25 26 21
4 21 26 27 20
4 20 27 28 19
4 19 28 18 3
4 4 5 29 24
4 24 29 30 25
4 25 30 31 26
4 26 31 32 27
4 27 32 33 28
4 28 33 17 18
4 5 6 34 29
4 29 34 35 30
4 30 35 36 31
4 31 36 37 32
4 32 37 38 33
4 33 38 16 17
4 6 7 39 34
4 34 39 40 35
4 35 40 41 36
4 36 41 42 37
4 37 42 43 38
4 38 43 15 16
4 7 8 44 39
4 39 44 45 40
4 40 45 46 41
4 41 46 47 42
4 42 47 48 43
4 43 48 14 15
4 8 1 9 44
4 44 9 10 45
4 45 10 11 46
4 46 11 12 47
4 47 12 13 48
4 48 13 2 14

CELL_TYPES 64
1
1
1
1
3
3
3
3
3
3
3
3
3
3
3
3
3
3
3
3
3
3
3
3
3
3
3
3
9
9
9
9
9
9
9
9
9
9
9
9
9
9
9
9
9
9
9
9
9
9
9
9
9
9
9
9
9
9
9
9
9
9
9
9

CELL_DATA 64
SCALARS CellEntityIds int 1
LOOKUP_TABLE default
-1
-1
-1
-1
1
1
1
1
1
1
2
2
2
2
2
2
3
3
3
3
3
3
4
4
4
4
4
4
5
5
5
5
5
5
5
5
5
5
5
5
5
5
5
5
5
5
5
5
5
5
5
5
5
5
5
5
5
5
5
5
5
5
5
5
