# vtk DataFile Version 2.0
shape2mesh, Created by Gmsh 4.13.1 
ASCII
DATASET UNSTRUCTURED_GRID
POINTS 113 double
70 -12 0
80 -10 0
80 -5 0
74 -8 0
80 -15 0
87 -10 0
90 -15 0
73.45491484105722 -11.30901703178856 0
75 -11 0
76.5450851589428 -10.69098296821144 0
80 -8.272542579471395 0
80 -7.500000000000001 0
80 -6.727457420528608 0
77.92705109536567 -6.036474452317163 0
77 -6.5 0
76.07294890463433 -6.963525547682835 0
72.61803406357711 -9.381965936422885 0
72 -10 0
71.38196593642289 -10.61803406357712 0
71.11111111111111 -12.33333333333334 0
72.22222222222224 -12.66666666666667 0
73.33333333333336 -13.00000000000001 0
74.44444444444447 -13.33333333333334 0
75.55555555555559 -13.66666666666668 0
76.6666666666667 -14.00000000000001 0
77.77777777777781 -14.33333333333335 0
78.88888888888893 -14.66666666666668 0
80 -13.27254257947139 0
80 -12.5 0
80 -11.72745742052861 0
82.41844038874005 -10 0
83.5 -10 0
84.58155961125995 -10 0
88.03647445231717 -11.72745742052861 0
88.5 -12.5 0
88.96352554768283 -13.27254257947139 0
86.54508515894278 -15 0
85 -15 0
83.45491484105722 -15 0
86.22222222222221 -9.444444444444443 0
85.44444444444444 -8.888888888888886 0
84.66666666666666 -8.333333333333329 0
83.88888888888889 -7.777777777777773 0
83.1111111111111 -7.222222222222217 0
82.33333333333333 -6.666666666666663 0
81.55555555555554 -6.111111111111107 0
80.77777777777777 -5.555555555555552 0
74.3594233151218 -9.807686729776099 0
74.76393187284577 -9.136271289735696 0
75.16844043056975 -8.464855849695294 0
75.69098296821144 -9.445288321524256 0
76 -8.75 0
76.30901703178856 -8.054711678475746 0
77.02254262130108 -9.082889913272412 0
77.23606812715423 -8.363728710264304 0
77.44959363300738 -7.644567507256196 0
76.92896458572693 -10.80614679624668 0
77.31284401251106 -10.92131062428192 0
77.6967234392952 -11.03647445231717 0
78.08060286607933 -11.1516382803524 0
78.46448229286347 -11.26680210838765 0
78.8483617196476 -11.38196593642289 0
79.23224114643173 -11.49712976445813 0
79.61612057321587 -11.61229359249337 0
75.55555555555557 -11.16666666666667 0
76.11111111111113 -11.33333333333333 0
76.66666666666667 -11.5 0
77.22222222222223 -11.66666666666667 0
77.77777777777779 -11.83333333333333 0
78.33333333333334 -12 0
78.8888888888889 -12.16666666666667 0
79.44444444444444 -12.33333333333333 0
74.1821465253842 -11.52718653708665 0
74.90937820971118 -11.74535604238474 0
75.63660989403816 -11.96352554768284 0
76.36384157836513 -12.18169505298093 0
77.09107326269211 -12.39986455827902 0
77.81830494701909 -12.61803406357712 0
78.54553663134605 -12.83620356887521 0
79.27276831567303 -13.0543730741733 0
85.86670380339434 -13.27254257947139 0
85.56332238510137 -12.5 0
85.2599409668084 -11.72745742052861 0
84.48176277384142 -13.27254257947139 0
84.25 -12.5 0
84.01823722615859 -11.72745742052861 0
83.0968217442885 -13.27254257947139 0
82.93667761489864 -12.5 0
82.77653348550878 -11.72745742052861 0
82.14972478999114 -9.808060286607933 0
81.88100919124226 -9.616120573215865 0
81.61229359249336 -9.424180859823796 0
81.34357799374446 -9.232241146431729 0
81.07486239499556 -9.040301433039662 0
80.80614679624668 -8.848361719647594 0
80.53743119749778 -8.656422006255527 0
80.26871559874888 -8.46448229286346 0
83.1111111111111 -9.722222222222221 0
82.72222222222221 -9.444444444444443 0
82.33333333333333 -9.166666666666664 0
81.94444444444443 -8.888888888888888 0
81.55555555555554 -8.611111111111109 0
81.16666666666666 -8.333333333333332 0
80.77777777777777 -8.055555555555554 0
80.38888888888889 -7.777777777777777 0
84.07249743223106 -9.636384157836511 0
83.56343525320217 -9.272768315673023 0
83.05437307417328 -8.909152473509533 0
82.54531089514441 -8.545536631346044 0
82.03624871611552 -8.181920789182556 0
81.52718653708664 -7.818304947019069 0
81.01812435805776 -7.45468910485558 0
80.50906217902887 -7.091073262692094 0

CELLS 161 666
1 0
1 1
1 2
1 3
1 4
1 5
1 6
2 0 7
2 7 8
2 8 9
2 9 1
2 1 10
2 10 11
2 11 12
2 12 2
2 2 13
2 13 14
2 14 15
2 15 3
2 3 16
2 16 17
2 17 18
2 18 0
2 0 19
2 19 20
2 20 21
2 21 22
2 22 23
2 23 24
2 24 25
2 25 26
2 26 4
2 4 27
2 27 28
2 28 29
2 29 1
2 1 30
2 30 31
2 31 32
2 32 5
2 5 33
2 33 34
2 34 35
2 35 6
2 6 36
2 36 37
2 37 38
2 38 4
2 5 39
2 39 40
2 40 41
2 41 42
2 42 43
2 43 44
2 44 45
2 45 46
2 46 2
4 0 7 47 18
4 18 47 48 17
4 17 48 49 16
4 16 49 15 3
4 7 8 50 47
4 47 50 51 48
4 48 51 52 49
4 49 52 14 15
4 8 9 53 50
4 50 53 54 51
4 51 54 55 52
4 52 55 13 14
4 9 1 10 53
4 53 10 11 54
4 54 11 12 55
4 55 12 2 13
3 1 9 56
3 1 56 57
3 1 57 58
3 1 58 59
3 1 59 60
3 1 60 61
3 1 61 62
3 1 62 63
3 1 63 29
4 9 8 64 56
4 56 64 65 57
4 57 65 66 58
4 58 66 67 59
4 59 67 68 60
4 60 68 69 61
4 61 69 70 62
4 62 70 71 63
4 63 71 28 29
4 8 7 72 64
4 64 72 73 65
4 65 73 74 66
4 66 74 75 67
4 67 75 76 68
4 68 76 77 69
4 69 77 78 70
4 70 78 79 71
4 71 79 27 28
4 7 0 19 72
4 72 19 20 73
4 73 20 21 74
4 74 21 22 75
4 75 22 23 76
4 76 23 24 77
4 77 24 25 78
4 78 25 26 79
4 79 26 4 27
4 6 35 80 36
4 35 34 81 80
4 34 33 82 81
4 33 5 32 82
4 36 80 83 37
4 80 81 84 83
4 81 82 85 84
4 82 32 31 85
4 37 83 86 38
4 83 84 87 86
4 84 85 88 87
4 85 31 30 88
4 38 86 27 4
4 86 87 28 27
4 87 88 29 28
4 88 30 1 29
3 1 30 89
3 1 89 90
3 1 90 91
3 1 91 92
3 1 92 93
3 1 93 94
3 1 94 95
3 1 95 96
3 1 96 10
4 30 31 97 89
4 89 97 98 90
4 90 98 99 91
4 91 99 100 92
4 92 100 101 93
4 93 101 102 94
4 94 102 103 95
4 95 103 104 96
4 96 104 11 10
4 31 32 105 97
4 97 105 106 98
4 98 106 107 99
4 99 107 108 100
4 100 108 109 101
4 101 109 110 102
4 102 110 111 103
4 103 111 112 104
4 104 112 12 11
4 32 5 39 105
4 105 39 40 106
4 106 40 41 107
4 107 41 42 108
4 108 42 43 109
4 109 43 44 110
4 110 44 45 111
4 111 45 46 112
4 112 46 2 12

CELL_TYPES 161
1
1
1
1
1
1
1
3
3
3
3
3
3
3
3
3
3
3
3
3
3
3
3
3
3
3
3
3
3
3
3
3
3
3
3
3
3
3
3
3
3
3
3
3
3
3
3
3
3
3
3
3
3
3
3
3
3
9
9
9
9
9
9
9
9
9
9
9
9
9
9
9
9
5
5
5
5
5
5
5
5
5
9
9
9
9
9
9
9
9
9
9
9
9
9
9
9
9
9
9
9
9
9
9
9
9
9
9
9
9
9
9
9
9
9
9
9
9
9
9
9
9
9
9
9
5
5
5
5
5
5
5
5
5
9
9
9
9
9
9
9
9
9
9
9
9
9
9
9
9
9
9
9
9
9
9
9
9
9
9
9

CELL_DATA 161
SCALARS CellEntityIds int 1
LOOKUP_TABLE default
-1
-1
-1
-1
-1
-1
-1
1
1
1
1
3
3
3
3
4
4
4
4
5
5
5
5
6
6
6
6
6
6
6
6
6
7
7
7
7
8
8
8
8
9
9
9
9
10
10
10
10
2
2
2
2
2
2
2
2
2
11
11
11
11
11
11
11
11
11
11
11
11
11
11
11
11
12
12
12
12
12
12
12
12
12
12
12
12
12
12
12
12
12
12
12
12
12
12
12
12
12
12
12
12
12
12
12
12
12
12
12
12
13
13
13
13
13
13
13
13
13
13
13
13
13
13
13
13
14
14
14
14
14
14
14
14
14
14
14
14
14
14
14
14
14
14
14
14
14
14
14
14
14
14
14
14
14
14
14
14
14
14
14
14
