# vtk DataFile Version 2.0
shape2mesh, Created by Gmsh 4.13.1
ASCII
DATASET UNSTRUCTURED_GRID
POINTS 100 double
45 -15 0
55 -12 0
52 -5 0
48 -10 0
46.11111111111112 -14.66666666666666 0
47.22222222222224 -14.33333333333333 0
48.33333333333336 -13.99999999999999 0
49.44444444444447 -13.66666666666666 0
50.55555555555559 -13.33333333333332 0
51.66666666666671 -12.99999999999999 0
52.77777777777782 -12.66666666666665 0
53.88888888888894 -12.33333333333332 0
54.66666666666666 -11.22222222222222 0
54.33333333333334 -10.44444444444444 0
54 -9.666666666666668 0
53.66666666666666 -8.888888888888889 0
53.33333333333334 -8.111111111111111 0
53 -7.333333333333333 0
52.66666666666666 -6.555555555555554 0
52.33333333333334 -5.777777777777776 0
51.55555555555556 -5.555555555555555 0
51.11111111111111 -6.111111111111112 0
50.66666666666666 -6.666666666666667 0
50.22222222222222 -7.222222222222223 0
49.77777777777778 -7.777777777777779 0
49.33333333333334 -8.333333333333334 0
48.88888888888889 -8.888888888888889 0
48.44444444444444 -9.444444444444446 0
47.66666666666666 -10.55555555555556 0
47.33333333333334 -11.11111111111111 0
47 -11.66666666666667 0
46.66666666666666 -12.22222222222222 0
46.33333333333333 -12.77777777777778 0
46 -13.33333333333334 0
45.66666666666666 -13.88888888888889 0
45.33333333333333 -14.44444444444445 0
46.37037037037037 -14.08641975308642 0
46.62962962962963 -13.50617283950617 0
46.88888888888889 -12.92592592592593 0
47.14814814814815 -12.34567901234568 0
47.4074074074074 -11.76543209876543 0
47.66666666666666 -11.18518518518519 0
47.92592592592592 -10.60493827160494 0
48.18518518518518 -10.02469135802469 0
47.40740740740741 -13.72839506172839 0
47.5925925925926 -13.12345679012346 0
47.77777777777778 -12.51851851851852 0
47.96296296296296 -11.91358024691358 0
48.14814814814815 -11.30864197530864 0
48.33333333333334 -10.7037037037037 0
48.51851851851852 -10.09876543209876 0
48.7037037037037 -9.493827160493826 0
48.44444444444445 -13.37037037037037 0
48.55555555555556 -12.74074074074074 0
48.66666666666667 -12.11111111111111 0
48.77777777777778 -11.48148148148148 0
48.88888888888889 -10.85185185185185 0
49 -10.22222222222222 0
49.11111111111111 -9.592592592592592 0
49.22222222222222 -8.962962962962962 0
49.48148148148149 -13.01234567901234 0
49.51851851851853 -12.35802469135802 0
49.55555555555556 -11.7037037037037 0
49.5925925925926 -11.04938271604938 0
49.62962962962963 -10.39506172839506 0
49.66666666666667 -9.74074074074074 0
49.7037037037037 -9.086419753086419 0
49.74074074074074 -8.432098765432098 0
50.51851851851853 -12.65432098765432 0
50.48148148148149 -11.97530864197531 0
50.44444444444445 -11.2962962962963 0
50.40740740740741 -10.61728395061728 0
50.37037037037037 -9.93827160493827 0
50.33333333333334 -9.25925925925926 0
50.2962962962963 -8.580246913580245 0
50.25925925925926 -7.901234567901234 0
51.55555555555556 -12.2962962962963 0
51.44444444444445 -11.59259259259259 0
51.33333333333334 -10.88888888888889 0
51.22222222222222 -10.18518518518519 0
51.11111111111111 -9.481481481481481 0
51 -8.777777777777777 0
50.88888888888889 -8.074074074074073 0
50.77777777777778 -7.370370370370368 0
52.5925925925926 -11.93827160493827 0
52.40740740740741 -11.20987654320988 0
52.22222222222222 -10.48148148148148 0
52.03703703703704 -9.753086419753085 0
51.85185185185185 -9.024691358024691 0
51.66666666666666 -8.296296296296296 0
51.48148148148148 -7.567901234567899 0
51.2962962962963 -6.839506172839505 0
53.62962962962963 -11.58024691358025 0
53.37037037037037 -10.82716049382716 0
53.11111111111111 -10.07407407407407 0
52.85185185185185 -9.320987654320987 0
52.5925925925926 -8.567901234567902 0
52.33333333333334 -7.814814814814815 0
52.07407407407408 -7.061728395061728 0
51.81481481481482 -6.308641975308642 0

CELLS 121 521
1 0
1 1
1 2
1 3
2 0 4
2 4 5
2 5 6
2 6 7
2 7 8
2 8 9
2 9 10
2 10 11
2 11 1
2 1 12
2 12 13
2 13 14
2 14 15
2 15 16
2 16 17
2 17 18
2 18 19
2 19 2
2 2 20
2 20 21
2 21 22
2 22 23
2 23 24
2 24 25
2 25 26
2 26 27
2 27 3
2 3 28
2 28 29
2 29 30
2 30 31
2 31 32
2 32 33
2 33 34
2 34 35
2 35 0
4 0 4 36 35
4 35 36 37 34
4 34 37 38 33
4 33 38 39 32
4 32 39 40 31
4 31 40 41 30
4 30 41 42 29
4 29 42 43 28
4 28 43 27 3
4 4 5 44 36
4 36 44 45 37
4 37 45 46 38
4 38 46 47 39
4 39 47 48 40
4 40 48 49 41
4 41 49 50 42
4 42 50 51 43
4 43 51 26 27
4 5 6 52 44
4 44 52 53 45
4 45 53 54 46
4 46 54 55 47
4 47 55 56 48
4 48 56 57 49
4 49 57 58 50
4 50 58 59 51
4 51 59 25 26
4 6 7 60 52
4 52 60 61 53
4 53 61 62 54
4 54 62 63 55
4 55 63 64 56
4 56 64 65 57
4 57 65 66 58
4 58 66 67 59
4 59 67 24 25
4 7 8 68 60
4 60 68 69 61
4 61 69 70 62
4 62 70 71 63
4 63 71 72 64
4 64 72 73 65
4 65 73 74 66
4 66 74 75 67
4 67 75 23 24
4 8 9 76 68
4 68 76 77 69
4 69 77 78 70
4 70 78 79 71
4 71 79 80 72
4 72 80 81 73
4 73 81 82 74
4 74 82 83 75
4 75 83 22 23
4 9 10 84 76
4 76 84 85 77
4 77 85 86 78
4 78 86 87 79
4 79 87 88 80
4 80 88 89 81
4 81 89 90 82
4 82 90 91 83
4 83 91 21 22
4 10 11 92 84
4 84 92 93 85
4 85 93 94 86
4 86 94 95 87
4 87 95 96 88
4 88 96 97 89
4 89 97 98 90
4 90 98 99 91
4 91 99 20 21
4 11 1 12 92
4 92 12 13 93
4 93 13 14 94
4 94 14 15 95
4 95 15 16 96
4 96 16 17 97
4 97 17 18 98
4 98 18 19 99
4 99 19 2 20

CELL_TYPES 121
1
1
1
1
3
3
3
3
3
3
3
3
3
3
3
3
3
3
3
3
3
3
3
3
3
3
3
3
3
3
3
3
3
3
3
3
3
3
3
3
9
9
9
9
9
9
9
9
9
9
9
9
9
9
9
9
9
9
9
9
9
9
9
9
9
9
9
9
9
9
9
9
9
9
9
9
9
9
9
9
9
9
9
9
9
9
9
9
9
9
9
9
9
9
9
9
9
9
9
9
9
9
9
9
9
9
9
9
9
9
9
9
9
9
9
9
9
9
9
9
9

CELL_DATA 121
SCALARS CellEntityIds int 1
LOOKUP_TABLE default
-1
-1
-1
-1
1
1
1
1
1
1
1
1
1
2
2
2
2
2
2
2
2
2
3
3
3
3
3
3
3
3
3
4
4
4
4
4
4
4
4
4
5
5
5
5
5
5
5
5
5
5
5
5
5
5
5
5
5
5
5
5
5
5
5
5
5
5
5
5
5
5
5
5
5
5
5
5
5
5
5
5
5
5
5
5
5
5
5
5
5
5
5
5
5
5
5
5
5
5
5
5
5
5
5
5
5
5
5
5
5
5
5
5
5
5
5
5
5
5
5
5
5
