# vtk DataFile Version 2.0
shape2mesh, Created by Gmsh 4.13.1 
ASCII
DATASET UNSTRUCTURED_GRID
POINTS 100 double
75 -15 0
85 -15 1
85 -5 1
75 -5 0
75.94887133154214 -14.25397738706197 0.7882315084850682
77.23949054124648 -13.83513723579982 1.204936111628832
78.58981007075334 -14.11624867026556 0.8698987285845582
79.68572222382863 -14.7567720394397 0.1835124386835129
80.71050751524085 -15.47630670754102 -0.5379354050377179
81.87670994345963 -16.1174193051865 -1.082770530032067
83.25020045193614 -16.2243122452749 -0.8944660208414575
84.26547803138598 -15.70491015399458 -0.02391745236615928
85 -14.04258738666435 0.1725270673072057
85 -12.85128800677722 -0.2232214531703428
85 -11.61986656230245 0.03399042804437973
85 -10.52083113620001 0.6657260334516379
85 -9.476938544232118 1.38796355934868
85 -8.37335545552224 2.011369965213748
85 -7.138136497074104 2.247635165597021
85 -5.952584567788199 1.833326953235933
84.26547803138592 -4.295089846005375 -0.02391745236622778
83.25020045193607 -3.775687754725084 -0.8944660208414984
81.87670994345955 -3.882580694813527 -1.082770530032048
80.71050751524078 -4.523693292459023 -0.5379354050376747
79.68572222382855 -5.243227960560342 0.1835124386835541
78.58981007075329 -5.883751329734475 0.8698987285845942
77.2394905412464 -6.16486276420018 1.204936111628829
75.94887133154208 -5.746022612937998 0.7882315084850334
74.0508057463055 -5.994682829038947 -0.9491942536945054
73.71370248632373 -7.483861455974566 -1.286297513676277
74.58989472563502 -8.573781464129556 -0.4101052743649905
75.62270405766812 -9.392490054135489 0.6227040576681208
75.62270405766813 -10.60750994586451 0.6227040576681144
74.58989472563502 -11.42621853587043 -0.4101052743649786
73.71370248632374 -12.51613854402541 -1.286297513676268
74.0508057463055 -14.00531717096104 -0.9491942536945162
75.06448675564781 -13.4340162336703 0.1036198947498778
74.75902551808574 -12.14174939345126 -0.2041458718810953
75.54754480357755 -11.20488478981078 0.5401299891033674
76.49329422573938 -10.52580015266606 1.353870227959662
76.50354302695196 -9.473733758931283 1.371954317481699
75.57876889878301 -8.794226990984097 0.5723576627537166
74.79840244503941 -7.856940439731718 -0.1663852882062632
75.0914354494908 -6.565220298001514 0.1264232006534371
76.37505761640291 -13.11500853249335 1.045835844933575
76.07202491355773 -11.94750413733588 0.941811863862573
76.7926340652149 -11.08985746114622 1.444505540922591
77.70813852650215 -10.47577101873079 1.708870244747472
77.7266658756884 -9.523629074178196 1.75673348389548
76.85404316453106 -8.908601486467299 1.512637922976225
76.14901491969256 -8.050098475237109 1.02524325529979
76.42544560442347 -6.883808175857276 1.110854929838977
77.74734945961903 -13.33597529245346 1.223898009230286
77.43022431684284 -12.13964269042953 1.423388041217591
78.10474832409496 -11.2027585711715 1.552477329663851
78.96414341985802 -10.49337249297104 1.423698341383644
78.98525030827886 -9.505791910139255 1.535673886415386
78.19028613902749 -8.794955092850094 1.692727817860122
77.54463171522211 -7.856801265273282 1.553023265917331
77.82690113793385 -6.662320332894097 1.295622135686613
78.9170986753402 -13.83428434264898 0.7478474210389302
78.60832451642015 -12.5308130933546 1.118807156976457
79.1960662603167 -11.43307415529439 1.109435221771815
79.93743892909362 -10.5455691964587 0.9495773045544523
79.95454676309458 -9.453365596317751 1.166764372590968
79.28848065333851 -8.563896568119015 1.429738525200684
78.74909196475728 -7.46447829361714 1.366045983486909
79.02236375173368 -6.163491822913953 0.8501882503796112
80.06088690257211 -14.39355556463144 -0.03534357752319277
79.78040057851007 -12.96565938466091 0.3868780101609096
80.25047968612674 -11.68915942118185 0.4247795232111342
80.83945652610089 -10.60539901819948 0.4405830269089721
80.84404429037608 -9.393322913105631 0.814619841392324
80.32038524117969 -8.307085422671115 1.103130402311713
79.91366349592774 -7.028498249211431 0.9568960461187206
80.16611262392752 -5.603717541142771 0.2536418399593338
81.40227409267031 -14.89230619678852 -0.9848102168053134
81.17603117667738 -13.35702694255409 -0.6693592292476233
81.50740718398536 -11.91959574553344 -0.4537479014844225
81.91825570648125 -10.65769292173595 -0.1030703480726761
81.89690718287049 -9.340814001055154 0.5085063286342032
81.50531503040631 -8.075922590299895 0.8806803116633295
81.22652367114581 -6.635996070455692 0.6769862824947092
81.44645049223446 -5.104463065794183 -0.1414027918523497
82.99840210294616 -14.97878730216131 -1.509661187982116
82.86338455976467 -13.45223700725432 -1.531860068348206
83.0548649571661 -11.97532415909916 -1.109456388823644
83.28478984513542 -10.65864843020803 -0.3824420991492472
83.23681197582016 -9.339635406532551 0.468205623702634
82.95596041083475 -8.019469618295449 1.023798637476907
82.76274072644603 -6.539651443259561 0.9950457588485488
82.92388983336438 -5.017479152245221 0.2305788259573726
84.17180012394043 -14.58223746206217 -0.9420849163598823
84.12061837878062 -13.20286188482956 -1.250422269994843
84.20202044751323 -11.82775598249381 -0.8217793387026492
84.29679546230034 -10.59876704093124 -0.01794819858161344
84.26231612357921 -9.399322883108699 0.8316958955893391
84.11515838030036 -8.166317985126053 1.459126121720871
84.00832707708447 -6.787864807114203 1.622436995734728
84.0878975038485 -5.41354591057665 1.040163034191361

CELLS 121 521
1 0
1 1
1 2
1 3
2 0 4
2 4 5
2 5 6
2 6 7
2 7 8
2 8 9
2 9 10
2 10 11
2 11 1
2 1 12
2 12 13
2 13 14
2 14 15
2 15 16
2 16 17
2 17 18
2 18 19
2 19 2
2 2 20
2 20 21
2 21 22
2 22 23
2 23 24
2 24 25
2 25 26
2 26 27
2 27 3
2 3 28
2 28 29
2 29 30
2 30 31
2 31 32
2 32 33
2 33 34
2 34 35
2 35 0
4 0 4 36 35
4 35 36 37 34
4 34 37 38 33
4 33 38 39 32
4 32 39 40 31
4 31 40 41 30
4 30 41 42 29
4 29 42 43 28
4 28 43 27 3
4 4 5 44 36
4 36 44 45 37
4 37 45 46 38
4 38 46 47 39
4 39 47 48 40
4 40 48 49 41
4 41 49 50 42
4 42 50 51 43
4 43 51 26 27
4 5 6 52 44
4 44 52 53 45
4 45 53 54 46
4 46 54 55 47
4 47 55 56 48
4 48 56 57 49
4 49 57 58 50
4 50 58 59 51
4 51 59 25 26
4 6 7 60 52
4 52 60 61 53
4 53 61 62 54
4 54 62 63 55
4 55 63 64 56
4 56 64 65 57
4 57 65 66 58
4 58 66 67 59
4 59 67 24 25
4 7 8 68 60
4 60 68 69 61
4 61 69 70 62
4 62 70 71 63
4 63 71 72 64
4 64 72 73 65
4 65 73 74 66
4 66 74 75 67
4 67 75 23 24
4 8 9 76 68
4 68 76 77 69
4 69 77 78 70
4 70 78 79 71
4 71 79 80 72
4 72 80 81 73
4 73 81 82 74
4 74 82 83 75
4 75 83 22 23
4 9 10 84 76
4 76 84 85 77
4 77 85 86 78
4 78 86 87 79
4 79 87 88 80
4 80 88 89 81
4 81 89 90 82
4 82 90 91 83
4 83 91 21 22
4 10 11 92 84
4 84 92 93 85
4 85 93 94 86
4 86 94 95 87
4 87 95 96 88
4 88 96 97 89
4 89 97 98 90
4 90 98 99 91
4 91 99 20 21
4 11 1 12 92
4 92 12 13 93
4 93 13 14 94
4 94 14 15 95
4 95 15 16 96
4 96 16 17 97
4 97 17 18 98
4 98 18 19 99
4 99 19 2 20

CELL_TYPES 121
1
1
1
1
3
3
3
3
3
3
3
3
3
3
3
3
3
3
3
3
3
3
3
3
3
3
3
3
3
3
3
3
3
3
3
3
3
3
3
3
9
9
9
9
9
9
9
9
9
9
9
9
9
9
9
9
9
9
9
9
9
9
9
9
9
9
9
9
9
9
9
9
9
9
9
9
9
9
9
9
9
9
9
9
9
9
9
9
9
9
9
9
9
9
9
9
9
9
9
9
9
9
9
9
9
9
9
9
9
9
9
9
9
9
9
9
9
9
9
9
9

CELL_DATA 121
SCALARS CellEntityIds int 1
LOOKUP_TABLE default
-1
-1
-1
-1
1
1
1
1
1
1
1
1
1
2
2
2
2
2
2
2
2
2
3
3
3
3
3
3
3
3
3
4
4
4
4
4
4
4
4
4
5
5
5
5
5
5
5
5
5
5
5
5
5
5
5
5
5
5
5
5
5
5
5
5
5
5
5
5
5
5
5
5
5
5
5
5
5
5
5
5
5
5
5
5
5
5
5
5
5
5
5
5
5
5
5
5
5
5
5
5
5
5
5
5
5
5
5
5
5
5
5
5
5
5
5
5
5
5
5
5
5
