# vtk DataFile Version 2.0
shape2mesh, Created by Gmsh 4.13.1
ASCII
DATASET UNSTRUCTURED_GRID
POINTS 41 double
15 0 0
25 0 0
25 7 0
17.5 0 0
20 0 0
22.5 0 0
25 0.7777777777777777 0
25 1.555555555555555 0
25 2.333333333333333 0
25 3.111111111111111 0
25 3.888888888888889 0
25 4.666666666666666 0
25 5.444444444444444 0
25 6.222222222222221 0
22.5 5.25 0
20 3.5 0
17.5 1.750000000000001 0
17.5 0.1944444444444446 0
17.5 0.3888888888888888 0
17.5 0.5833333333333335 0
17.5 0.7777777777777783 0
17.5 0.972222222222223 0
17.5 1.166666666666667 0
17.5 1.361111111111112 0
17.5 1.555555555555556 0
20 0.3888888888888886 0
20 0.7777777777777775 0
20 1.166666666666666 0
20 1.555555555555555 0
20 1.944444444444444 0
20 2.333333333333333 0
20 2.722222222222221 0
20 3.111111111111111 0
22.5 0.5833333333333335 0
22.5 1.166666666666667 0
22.5 1.749999999999999 0
22.5 2.333333333333333 0
22.5 2.916666666666667 0
22.5 3.499999999999999 0
22.5 4.083333333333332 0
22.5 4.666666666666666 0

CELLS 56 228
1 0
1 1
1 2
2 0 3
2 3 4
2 4 5
2 5 1
2 1 6
2 6 7
2 7 8
2 8 9
2 9 10
2 10 11
2 11 12
2 12 13
2 13 2
2 2 14
2 14 15
2 15 16
2 16 0
3 0 3 17
3 0 17 18
3 0 18 19
3 0 19 20
3 0 20 21
3 0 21 22
3 0 22 23
3 0 23 24
3 0 24 16
4 3 4 25 17
4 17 25 26 18
4 18 26 27 19
4 19 27 28 20
4 20 28 29 21
4 21 29 30 22
4 22 30 31 23
4 23 31 32 24
4 24 32 15 16
4 4 5 33 25
4 25 33 34 26
4 26 34 35 27
4 27 35 36 28
4 28 36 37 29
4 29 37 38 30
4 30 38 39 31
4 31 39 40 32
4 32 40 14 15
4 5 1 6 33
4 33 6 7 34
4 34 7 8 35
4 35 8 9 36
4 36 9 10 37
4 37 10 11 38
4 38 11 12 39
4 39 12 13 40
4 40 13 2 14

CELL_TYPES 56
1
1
1
3
3
3
3
3
3
3
3
3
3
3
3
3
3
3
3
3
5
5
5
5
5
5
5
5
5
9
9
9
9
9
9
9
9
9
9
9
9
9
9
9
9
9
9
9
9
9
9
9
9
9
9
9

CELL_DATA 56
SCALARS CellEntityIds int 1
LOOKUP_TABLE default
-1
-1
-1
1
1
1
1
2
2
2
2
2
2
2
2
2
3
3
3
3
4
4
4
4
4
4
4
4
4
4
4
4
4
4
4
4
4
4
4
4
4
4
4
4
4
4
4
4
4
4
4
4
4
4
4
4
