# vtk DataFile Version 2.0
shape2mesh, Created by Gmsh 4.13.1
ASCII
DATASET UNSTRUCTURED_GRID
POINTS 46 double
60 0 0
70 0 0
65 5 0
61.11111111111111 0 0
62.22222222222222 0 0
63.33333333333334 0 0
64.44444444444444 0 0
65.55555555555556 0 0
66.66666666666667 0 0
67.77777777777777 0 0
68.88888888888889 0 0
68.75 1.250000000000001 0
67.5 2.500000000000002 0
66.25 3.750000000000003 0
64.44444444444444 4.444444444444444 0
63.88888888888889 3.888888888888888 0
63.33333333333333 3.333333333333331 0
62.77777777777777 2.777777777777775 0
62.22222222222222 2.222222222222219 0
61.66666666666666 1.666666666666664 0
61.11111111111111 1.111111111111107 0
60.55555555555555 0.5555555555555509 0
60.97222222222222 0.1388888888888877 0
60.83333333333333 0.2777777777777755 0
60.69444444444444 0.4166666666666634 0
61.94444444444444 0.2777777777777766 0
61.66666666666666 0.5555555555555534 0
61.38888888888889 0.8333333333333303 0
62.91666666666666 0.4166666666666661 0
62.5 0.8333333333333319 0
62.08333333333333 1.249999999999998 0
63.88888888888889 0.5555555555555549 0
63.33333333333333 1.11111111111111 0
62.77777777777778 1.666666666666665 0
64.86111111111111 0.6944444444444439 0
64.16666666666667 1.388888888888888 0
63.47222222222222 2.083333333333331 0
65.83333333333333 0.8333333333333328 0
65 1.666666666666666 0
64.16666666666667 2.499999999999998 0
66.80555555555556 0.9722222222222218 0
65.83333333333333 1.944444444444444 0
64.86111111111111 2.916666666666665 0
67.77777777777777 1.111111111111111 0
66.66666666666667 2.222222222222222 0
65.55555555555556 3.333333333333333 0

CELLS 61 248
1 0
1 1
1 2
2 0 3
2 3 4
2 4 5
2 5 6
2 6 7
2 7 8
2 8 9
2 9 10
2 10 1
2 1 11
2 11 12
2 12 13
2 13 2
2 2 14
2 14 15
2 15 16
2 16 17
2 17 18
2 18 19
2 19 20
2 20 21
2 21 0
3 0 3 22
3 0 22 23
3 0 23 24
3 0 24 21
4 3 4 25 22
4 22 25 26 23
4 23 26 27 24
4 24 27 20 21
4 4 5 28 25
4 25 28 29 26
4 26 29 30 27
4 27 30 19 20
4 5 6 31 28
4 28 31 32 29
4 29 32 33 30
4 30 33 18 19
4 6 7 34 31
4 31 34 35 32
4 32 35 36 33
4 33 36 17 18
4 7 8 37 34
4 34 37 38 35
4 35 38 39 36
4 36 39 16 17
4 8 9 40 37
4 37 40 41 38
4 38 41 42 39
4 39 42 15 16
4 9 10 43 40
4 40 43 44 41
4 41 44 45 42
4 42 45 14 15
4 10 1 11 43
4 43 11 12 44
4 44 12 13 45
4 45 13 2 14

CELL_TYPES 61
1
1
1
3
3
3
3
3
3
3
3
3
3
3
3
3
3
3
3
3
3
3
3
3
3
5
5
5
5
9
9
9
9
9
9
9
9
9
9
9
9
9
9
9
9
9
9
9
9
9
9
9
9
9
9
9
9
9
9
9
9

CELL_DATA 61
SCALARS CellEntityIds int 1
LOOKUP_TABLE default
-1
-1
-1
1
1
1
1
1
1
1
1
1
2
2
2
2
3
3
3
3
3
3
3
3
3
4
4
4
4
4
4
4
4
4
4
4
4
4
4
4
4
4
4
4
4
4
4
4
4
4
4
4
4
4
4
4
4
4
4
4
4
