# vtk DataFile Version 2.0
shape2mesh, Created by Gmsh 4.13.1 
ASCII
DATASET UNSTRUCTURED_GRID
POINTS 31 double
0 0 0
10 0 0
5 8 0
2 0 0
4 0 0
6 0 0
8 0 0
9 1.599999999999999 0
8 3.199999999999998 0
7.000000000000002 4.799999999999997 0
6.000000000000002 6.399999999999997 0
4 6.4 0
3.000000000000001 4.800000000000002 0
2.000000000000001 3.200000000000003 0
1.000000000000002 1.600000000000003 0
1.8 0.3200000000000007 0
1.600000000000001 0.6400000000000012 0
1.400000000000001 0.9600000000000015 0
1.200000000000002 1.280000000000002 0
3.6 0.6400000000000006 0
3.200000000000001 1.280000000000001 0
2.800000000000001 1.920000000000001 0
2.400000000000001 2.560000000000001 0
5.4 0.96 0
4.800000000000001 1.92 0
4.200000000000001 2.88 0
3.600000000000001 3.840000000000001 0
7.199999999999999 1.28 0
6.4 2.56 0
5.600000000000001 3.84 0
4.800000000000001 5.120000000000001 0

CELLS 63 231
1 0
1 1
1 2
2 0 3
2 3 4
2 4 5
2 5 6
2 6 1
2 1 7
2 7 8
2 8 9
2 9 10
2 10 2
2 2 11
2 11 12
2 12 13
2 13 14
2 14 0
3 0 3 15
3 0 15 16
3 0 16 17
3 0 17 18
3 0 18 14
3 3 4 15
3 15 4 19
3 15 19 16
3 16 19 20
3 16 20 17
3 17 20 21
3 17 21 18
3 18 21 22
3 18 22 14
3 14 22 13
3 4 5 19
3 19 5 23
3 19 23 20
3 20 23 24
3 20 24 21
3 21 24 25
3 21 25 22
3 22 25 26
3 22 26 13
3 13 26 12
3 5 6 23
3 23 6 27
3 23 27 24
3 24 27 28
3 24 28 25
3 25 28 29
3 25 29 26
3 26 29 30
3 26 30 12
3 12 30 11
3 6 1 27
3 27 1 7
3 27 7 28
3 28 7 8
3 28 8 29
3 29 8 9
3 29 9 30
3 30 9 10
3 30 10 11
3 11 10 2

CELL_TYPES 63
1
1
1
3
3
3
3
3
3
3
3
3
3
3
3
3
3
3
5
5
5
5
5
5
5
5
5
5
5
5
5
5
5
5
5
5
5
5
5
5
5
5
5
5
5
5
5
5
5
5
5
5
5
5
5
5
5
5
5
5
5
5
5

CELL_DATA 63
SCALARS CellEntityIds int 1
LOOKUP_TABLE default
-1
-1
-1
1
1
1
1
1
2
2
2
2
2
3
3
3
3
3
4
4
4
4
4
4
4
4
4
4
4
4
4
4
4
4
4
4
4
4
4
4
4
4
4
4
4
4
4
4
4
4
4
4
4
4
4
4
4
4
4
4
4
4
4
