# vtk DataFile Version 2.0
shape2mesh, Created by Gmsh 4.13.1 
ASCII
DATASET UNSTRUCTURED_GRID
POINTS 29 double
75 0 0
85 0 0
80 5 0
76.66666666666667 0 0
78.33333333333333 0 0
80 0 0
81.66666666666667 0 0
83.33333333333333 0 0
83.75 1.250000000000001 0
82.5 2.500000000000002 0
81.25 3.750000000000003 0
78.75 3.749999999999999 0
77.5 2.499999999999998 0
76.25 1.249999999999997 0
79.16666666666667 3.75 0
79.58333333333333 3.750000000000001 0
80 3.750000000000001 0
80.41666666666667 3.750000000000002 0
80.83333333333333 3.750000000000003 0
78.33333333333333 2.499999999999999 0
79.16666666666667 2.5 0
80 2.5 0
80.83333333333333 2.500000000000001 0
81.66666666666667 2.500000000000001 0
77.5 1.249999999999998 0
78.75 1.249999999999998 0
80 1.249999999999999 0
81.25 1.25 0
82.5 1.25 0

CELLS 41 162
1 0
1 1
1 2
2 0 3
2 3 4
2 4 5
2 5 6
2 6 7
2 7 1
2 1 8
2 8 9
2 9 10
2 10 2
2 2 11
2 11 12
2 12 13
2 13 0
3 2 11 14
3 2 14 15
3 2 15 16
3 2 16 17
3 2 17 18
3 2 18 10
4 11 12 19 14
4 14 19 20 15
4 15 20 21 16
4 16 21 22 17
4 17 22 23 18
4 18 23 9 10
4 12 13 24 19
4 19 24 25 20
4 20 25 26 21
4 21 26 27 22
4 22 27 28 23
4 23 28 8 9
4 13 0 3 24
4 24 3 4 25
4 25 4 5 26
4 26 5 6 27
4 27 6 7 28
4 28 7 1 8

CELL_TYPES 41
1
1
1
3
3
3
3
3
3
3
3
3
3
3
3
3
3
5
5
5
5
5
5
9
9
9
9
9
9
9
9
9
9
9
9
9
9
9
9
9
9

CELL_DATA 41
SCALARS CellEntityIds int 1
LOOKUP_TABLE default
-1
-1
-1
1
1
1
1
1
1
2
2
2
2
3
3
3
3
4
4
4
4
4
4
4
4
4
4
4
4
4
4
4
4
4
4
4
4
4
4
4
4
