# vtk DataFile Version 2.0
shape2mesh, Created by Gmsh 4.13.1
ASCII
DATASET UNSTRUCTURED_GRID
POINTS 158 double
70 0 0
80 0 0
80 7 0
90 0 0
90 7 0
71.11111111111111 0 0
72.22222222222223 0 0
73.33333333333333 0 0
74.44444444444444 0 0
75.55555555555556 0 0
76.66666666666667 0 0
77.77777777777777 0 0
78.88888888888889 0 0
80 0.7777777777777777 0
80 1.555555555555555 0
80 2.333333333333333 0
80 3.111111111111111 0
80 3.888888888888889 0
80 4.666666666666666 0
80 5.444444444444444 0
80 6.222222222222221 0
78.88888888888889 6.222222222222221 0
77.77777777777777 5.444444444444445 0
76.66666666666667 4.666666666666666 0
75.55555555555556 3.888888888888889 0
74.44444444444444 3.111111111111112 0
73.33333333333333 2.333333333333333 0
72.22222222222223 1.555555555555555 0
71.11111111111111 0.7777777777777786 0
82.5 5.25 0
85 3.5 0
87.5 1.750000000000001 0
87.5 0 0
85 0 0
82.5 0 0
90 0.7777777777777777 0
90 1.555555555555555 0
90 2.333333333333333 0
90 3.111111111111111 0
90 3.888888888888889 0
90 4.666666666666666 0
90 5.444444444444444 0
90 6.222222222222221 0
87.5 7 0
85 7 0
82.5 7 0
71.11111111111111 0.08641975308642014 0
71.11111111111111 0.1728395061728398 0
71.11111111111111 0.25925925925926 0
71.11111111111111 0.3456790123456797 0
71.11111111111111 0.4320987654320994 0
71.11111111111111 0.5185185185185193 0
71.11111111111111 0.6049382716049392 0
71.11111111111111 0.6913580246913589 0
72.22222222222223 0.1728395061728389 0
72.22222222222223 0.345679012345679 0
72.22222222222223 0.5185185185185182 0
72.22222222222223 0.6913580246913582 0
72.22222222222223 0.8641975308641976 0
72.22222222222223 1.037037037037037 0
72.22222222222223 1.209876543209877 0
72.22222222222223 1.382716049382716 0
73.33333333333334 0.2592592592592591 0
73.33333333333334 0.5185185185185186 0
73.33333333333334 0.7777777777777777 0
73.33333333333334 1.037037037037037 0
73.33333333333334 1.296296296296296 0
73.33333333333334 1.555555555555555 0
73.33333333333334 1.814814814814814 0
73.33333333333334 2.074074074074074 0
74.44444444444444 0.3456790123456794 0
74.44444444444444 0.6913580246913582 0
74.44444444444444 1.037037037037037 0
74.44444444444444 1.382716049382716 0
74.44444444444444 1.728395061728396 0
74.44444444444444 2.074074074074074 0
74.44444444444444 2.419753086419753 0
74.44444444444444 2.765432098765432 0
75.55555555555556 0.4320987654320987 0
75.55555555555556 0.8641975308641974 0
75.55555555555556 1.296296296296296 0
75.55555555555556 1.728395061728395 0
75.55555555555556 2.160493827160494 0
75.55555555555556 2.592592592592593 0
75.55555555555556 3.024691358024691 0
75.55555555555556 3.45679012345679 0
76.66666666666667 0.5185185185185186 0
76.66666666666667 1.037037037037037 0
76.66666666666667 1.555555555555555 0
76.66666666666667 2.074074074074074 0
76.66666666666667 2.592592592592593 0
76.66666666666667 3.111111111111111 0
76.66666666666667 3.629629629629629 0
76.66666666666667 4.148148148148147 0
77.77777777777779 0.6049382716049381 0
77.77777777777779 1.209876543209876 0
77.77777777777779 1.814814814814815 0
77.77777777777779 2.419753086419753 0
77.77777777777779 3.024691358024691 0
77.77777777777779 3.629629629629629 0
77.77777777777779 4.234567901234567 0
77.77777777777779 4.839506172839505 0
78.88888888888889 0.6913580246913584 0
78.88888888888889 1.382716049382716 0
78.8888888888889 2.074074074074074 0
78.88888888888889 2.765432098765432 0
78.8888888888889 3.45679012345679 0
78.88888888888889 4.148148148148147 0
78.88888888888889 4.839506172839505 0
78.88888888888889 5.530864197530863 0
87.5 0.1944444444444446 0
87.5 0.3888888888888891 0
87.5 0.5833333333333335 0
87.5 0.7777777777777783 0
87.5 0.9722222222222228 0
87.5 1.166666666666667 0
87.5 1.361111111111112 0
87.5 1.555555555555556 0
85 0.3888888888888888 0
85 0.7777777777777775 0
85 1.166666666666666 0
85 1.555555555555555 0
85 1.944444444444444 0
85 2.333333333333333 0
85 2.722222222222221 0
85 3.11111111111111 0
82.5 0.5833333333333333 0
82.5 1.166666666666666 0
82.5 1.75 0
82.5 2.333333333333333 0
82.5 2.916666666666667 0
82.5 3.499999999999999 0
82.5 4.083333333333332 0
82.5 4.666666666666666 0
82.5 5.444444444444444 0
82.5 5.638888888888888 0
82.5 5.833333333333333 0
82.5 6.027777777777777 0
82.5 6.222222222222221 0
82.5 6.416666666666666 0
82.5 6.611111111111111 0
82.5 6.805555555555555 0
85 3.888888888888888 0
85 4.277777777777777 0
85 4.666666666666665 0
85 5.055555555555554 0
85 5.444444444444444 0
85 5.833333333333332 0
85 6.222222222222221 0
85 6.611111111111111 0
87.5 2.333333333333332 0
87.5 2.916666666666666 0
87.5 3.499999999999999 0
87.5 4.083333333333332 0
87.5 4.666666666666667 0
87.5 5.249999999999999 0
87.5 5.833333333333332 0
87.5 6.416666666666666 0

CELLS 206 892
1 0
1 1
1 2
1 3
1 4
2 0 5
2 5 6
2 6 7
2 7 8
2 8 9
2 9 10
2 10 11
2 11 12
2 12 1
2 1 13
2 13 14
2 14 15
2 15 16
2 16 17
2 17 18
2 18 19
2 19 20
2 20 2
2 2 21
2 21 22
2 22 23
2 23 24
2 24 25
2 25 26
2 26 27
2 27 28
2 28 0
2 2 29
2 29 30
2 30 31
2 31 3
2 3 32
2 32 33
2 33 34
2 34 1
2 3 35
2 35 36
2 36 37
2 37 38
2 38 39
2 39 40
2 40 41
2 41 42
2 42 4
2 4 43
2 43 44
2 44 45
2 45 2
3 0 5 46
3 0 46 47
3 0 47 48
3 0 48 49
3 0 49 50
3 0 50 51
3 0 51 52
3 0 52 53
3 0 53 28
4 5 6 54 46
4 46 54 55 47
4 47 55 56 48
4 48 56 57 49
4 49 57 58 50
4 50 58 59 51
4 51 59 60 52
4 52 60 61 53
4 53 61 27 28
4 6 7 62 54
4 54 62 63 55
4 55 63 64 56
4 56 64 65 57
4 57 65 66 58
4 58 66 67 59
4 59 67 68 60
4 60 68 69 61
4 61 69 26 27
4 7 8 70 62
4 62 70 71 63
4 63 71 72 64
4 64 72 73 65
4 65 73 74 66
4 66 74 75 67
4 67 75 76 68
4 68 76 77 69
4 69 77 25 26
4 8 9 78 70
4 70 78 79 71
4 71 79 80 72
4 72 80 81 73
4 73 81 82 74
4 74 82 83 75
4 75 83 84 76
4 76 84 85 77
4 77 85 24 25
4 9 10 86 78
4 78 86 87 79
4 79 87 88 80
4 80 88 89 81
4 81 89 90 82
4 82 90 91 83
4 83 91 92 84
4 84 92 93 85
4 85 93 23 24
4 10 11 94 86
4 86 94 95 87
4 87 95 96 88
4 88 96 97 89
4 89 97 98 90
4 90 98 99 91
4 91 99 100 92
4 92 100 101 93
4 93 101 22 23
4 11 12 102 94
4 94 102 103 95
4 95 103 104 96
4 96 104 105 97
4 97 105 106 98
4 98 106 107 99
4 99 107 108 100
4 100 108 109 101
4 101 109 21 22
4 12 1 13 102
4 102 13 14 103
4 103 14 15 104
4 104 15 16 105
4 105 16 17 106
4 106 17 18 107
4 107 18 19 108
4 108 19 20 109
4 109 20 2 21
3 3 110 32
3 3 111 110
3 3 112 111
3 3 113 112
3 3 114 113
3 3 115 114
3 3 116 115
3 3 117 116
3 3 31 117
4 32 110 118 33
4 110 111 119 118
4 111 112 120 119
4 112 113 121 120
4 113 114 122 121
4 114 115 123 122
4 115 116 124 123
4 116 117 125 124
4 117 31 30 125
4 33 118 126 34
4 118 119 127 126
4 119 120 128 127
4 120 121 129 128
4 121 122 130 129
4 122 123 131 130
4 123 124 132 131
4 124 125 133 132
4 125 30 29 133
4 34 126 13 1
4 126 127 14 13
4 127 128 15 14
4 128 129 16 15
4 129 130 17 16
4 130 131 18 17
4 131 132 19 18
4 132 133 20 19
4 133 29 2 20
3 2 29 134
3 2 134 135
3 2 135 136
3 2 136 137
3 2 137 138
3 2 138 139
3 2 139 140
3 2 140 141
3 2 141 45
4 29 30 142 134
4 134 142 143 135
4 135 143 144 136
4 136 144 145 137
4 137 145 146 138
4 138 146 147 139
4 139 147 148 140
4 140 148 149 141
4 141 149 44 45
4 30 31 150 142
4 142 150 151 143
4 143 151 152 144
4 144 152 153 145
4 145 153 154 146
4 146 154 155 147
4 147 155 156 148
4 148 156 157 149
4 149 157 43 44
4 31 3 35 150
4 150 35 36 151
4 151 36 37 152
4 152 37 38 153
4 153 38 39 154
4 154 39 40 155
4 155 40 41 156
4 156 41 42 157
4 157 42 4 43

CELL_TYPES 206
1
1
1
1
1
3
3
3
3
3
3
3
3
3
3
3
3
3
3
3
3
3
3
3
3
3
3
3
3
3
3
3
3
3
3
3
3
3
3
3
3
3
3
3
3
3
3
3
3
3
3
3
3
5
5
5
5
5
5
5
5
5
9
9
9
9
9
9
9
9
9
9
9
9
9
9
9
9
9
9
9
9
9
9
9
9
9
9
9
9
9
9
9
9
9
9
9
9
9
9
9
9
9
9
9
9
9
9
9
9
9
9
9
9
9
9
9
9
9
9
9
9
9
9
9
9
9
9
9
9
9
9
9
9
5
5
5
5
5
5
5
5
5
9
9
9
9
9
9
9
9
9
9
9
9
9
9
9
9
9
9
9
9
9
9
9
9
9
9
9
5
5
5
5
5
5
5
5
5
9
9
9
9
9
9
9
9
9
9
9
9
9
9
9
9
9
9
9
9
9
9
9
9
9
9
9

CELL_DATA 206
SCALARS CellEntityIds int 1
LOOKUP_TABLE default
-1
-1
-1
-1
-1
1
1
1
1
1
1
1
1
1
2
2
2
2
2
2
2
2
2
3
3
3
3
3
3
3
3
3
4
4
4
4
5
5
5
5
6
6
6
6
6
6
6
6
6
7
7
7
7
8
8
8
8
8
8
8
8
8
8
8
8
8
8
8
8
8
8
8
8
8
8
8
8
8
8
8
8
8
8
8
8
8
8
8
8
8
8
8
8
8
8
8
8
8
8
8
8
8
8
8
8
8
8
8
8
8
8
8
8
8
8
8
8
8
8
8
8
8
8
8
8
8
8
8
8
8
8
8
8
8
9
9
9
9
9
9
9
9
9
9
9
9
9
9
9
9
9
9
9
9
9
9
9
9
9
9
9
9
9
9
9
9
9
9
9
9
10
10
10
10
10
10
10
10
10
10
10
10
10
10
10
10
10
10
10
10
10
10
10
10
10
10
10
10
10
10
10
10
10
10
10
10
