# vtk DataFile Version 2.0
shape2mesh, Created by Gmsh 4.13.1 
ASCII
DATASET UNSTRUCTURED_GRID
POINTS 91 double
0 0 0
10 0 0
10 7 0
1.111111111111111 0 0
2.222222222222222 0 0
3.333333333333333 0 0
4.444444444444445 0 0
5.555555555555555 0 0
6.666666666666666 0 0
7.777777777777777 0 0
8.888888888888889 0 0
10 0.7777777777777777 0
10 1.555555555555555 0
10 2.333333333333333 0
10 3.111111111111111 0
10 3.888888888888889 0
10 4.666666666666666 0
10 5.444444444444444 0
10 6.222222222222221 0
8.888888888888888 6.222222222222221 0
7.777777777777777 5.444444444444445 0
6.666666666666666 4.666666666666666 0
5.555555555555555 3.888888888888889 0
4.444444444444446 3.111111111111112 0
3.333333333333333 2.333333333333333 0
2.222222222222221 1.555555555555555 0
1.111111111111112 0.7777777777777786 0
1.111111111111111 0.08641975308641969 0
1.111111111111111 0.1728395061728398 0
1.111111111111111 0.25925925925926 0
1.111111111111111 0.3456790123456797 0
1.111111111111112 0.4320987654320994 0
1.111111111111112 0.5185185185185195 0
1.111111111111112 0.6049382716049392 0
1.111111111111112 0.6913580246913591 0
2.222222222222222 0.1728395061728394 0
2.222222222222222 0.345679012345679 0
2.222222222222221 0.5185185185185182 0
2.222222222222222 0.6913580246913582 0
2.222222222222222 0.8641975308641978 0
2.222222222222222 1.037037037037037 0
2.222222222222222 1.209876543209877 0
2.222222222222221 1.382716049382716 0
3.333333333333333 0.2592592592592591 0
3.333333333333333 0.5185185185185186 0
3.333333333333333 0.7777777777777777 0
3.333333333333333 1.037037037037037 0
3.333333333333333 1.296296296296297 0
3.333333333333333 1.555555555555555 0
3.333333333333333 1.814814814814815 0
3.333333333333333 2.074074074074074 0
4.444444444444445 0.3456790123456792 0
4.444444444444445 0.6913580246913584 0
4.444444444444445 1.037037037037037 0
4.444444444444446 1.382716049382716 0
4.444444444444445 1.728395061728396 0
4.444444444444446 2.074074074074074 0
4.444444444444446 2.419753086419753 0
4.444444444444446 2.765432098765432 0
5.555555555555555 0.4320987654320987 0
5.555555555555555 0.8641975308641974 0
5.555555555555555 1.296296296296296 0
5.555555555555556 1.728395061728395 0
5.555555555555555 2.160493827160494 0
5.555555555555555 2.592592592592593 0
5.555555555555555 3.024691358024691 0
5.555555555555555 3.45679012345679 0
6.666666666666666 0.5185185185185186 0
6.666666666666666 1.037037037037037 0
6.666666666666666 1.555555555555555 0
6.666666666666666 2.074074074074074 0
6.666666666666666 2.592592592592593 0
6.666666666666666 3.111111111111111 0
6.666666666666667 3.629629629629629 0
6.666666666666666 4.148148148148148 0
7.777777777777777 0.6049382716049381 0
7.777777777777778 1.209876543209877 0
7.777777777777777 1.814814814814815 0
7.777777777777778 2.419753086419753 0
7.777777777777778 3.024691358024691 0
7.777777777777777 3.629629629629629 0
7.777777777777778 4.234567901234568 0
7.777777777777777 4.839506172839505 0
8.888888888888889 0.691358024691358 0
8.888888888888889 1.382716049382716 0
8.888888888888889 2.074074074074074 0
8.888888888888889 2.765432098765432 0
8.888888888888889 3.456790123456791 0
8.888888888888889 4.148148148148147 0
8.888888888888889 4.839506172839505 0
8.888888888888889 5.530864197530863 0

CELLS 111 483
1 0
1 1
1 2
2 0 3
2 3 4
2 4 5
2 5 6
2 6 7
2 7 8
2 8 9
2 9 10
2 10 1
2 1 11
2 11 12
2 12 13
2 13 14
2 14 15
2 15 16
2 16 17
2 17 18
2 18 2
2 2 19
2 19 20
2 20 21
2 21 22
2 22 23
2 23 24
2 24 25
2 25 26
2 26 0
3 0 3 27
3 0 27 28
3 0 28 29
3 0 29 30
3 0 30 31
3 0 31 32
3 0 32 33
3 0 33 34
3 0 34 26
4 3 4 35 27
4 27 35 36 28
4 28 36 37 29
4 29 37 38 30
4 30 38 39 31
4 31 39 40 32
4 32 40 41 33
4 33 41 42 34
4 34 42 25 26
4 4 5 43 35
4 35 43 44 36
4 36 44 45 37
4 37 45 46 38
4 38 46 47 39
4 39 47 48 40
4 40 48 49 41
4 41 49 50 42
4 42 50 24 25
4 5 6 51 43
4 43 51 52 44
4 44 52 53 45
4 45 53 54 46
4 46 54 55 47
4 47 55 56 48
4 48 56 57 49
4 49 57 58 50
4 50 58 23 24
4 6 7 59 51
4 51 59 60 52
4 52 60 61 53
4 53 61 62 54
4 54 62 63 55
4 55 63 64 56
4 56 64 65 57
4 57 65 66 58
4 58 66 22 23
4 7 8 67 59
4 59 67 68 60
4 60 68 69 61
4 61 69 70 62
4 62 70 71 63
4 63 71 72 64
4 64 72 73 65
4 65 73 74 66
4 66 74 21 22
4 8 9 75 67
4 67 75 76 68
4 68 76 77 69
4 69 77 78 70
4 70 78 79 71
4 71 79 80 72
4 72 80 81 73
4 73 81 82 74
4 74 82 20 21
4 9 10 83 75
4 75 83 84 76
4 76 84 85 77
4 77 85 86 78
4 78 86 87 79
4 79 87 88 80
4 80 88 89 81
4 81 89 90 82
4 82 90 19 20
4 10 1 11 83
4 83 11 12 84
4 84 12 13 85
4 85 13 14 86
4 86 14 15 87
4 87 15 16 88
4 88 16 17 89
4 89 17 18 90
4 90 18 2 19

CELL_TYPES 111
1
1
1
3
3
3
3
3
3
3
3
3
3
3
3
3
3
3
3
3
3
3
3
3
3
3
3
3
3
3
5
5
5
5
5
5
5
5
5
9
9
9
9
9
9
9
9
9
9
9
9
9
9
9
9
9
9
9
9
9
9
9
9
9
9
9
9
9
9
9
9
9
9
9
9
9
9
9
9
9
9
9
9
9
9
9
9
9
9
9
9
9
9
9
9
9
9
9
9
9
9
9
9
9
9
9
9
9
9
9
9

CELL_DATA 111
SCALARS CellEntityIds int 1
LOOKUP_TABLE default
-1
-1
-1
1
1
1
1
1
1
1
1
1
2
2
2
2
2
2
2
2
2
3
3
3
3
3
3
3
3
3
4
4
4
4
4
4
4
4
4
4
4
4
4
4
4
4
4
4
4
4
4
4
4
4
4
4
4
4
4
4
4
4
4
4
4
4
4
4
4
4
4
4
4
4
4
4
4
4
4
4
4
4
4
4
4
4
4
4
4
4
4
4
4
4
4
4
4
4
4
4
4
4
4
4
4
4
4
4
4
4
4
