# vtk DataFile Version 2.0
shape2mesh, Created by Gmsh 4.13.1 
ASCII
DATASET UNSTRUCTURED_GRID
POINTS 64 double
30 0 0
40 0 0
35 8 0
32.08954940491923 0 0
33.23372165762451 0 0
34.03307456827901 0 0
34.69089788497509 0 0
35.3091021150249 0 0
35.96692543172098 0 0
36.76627834237548 0 0
37.91045059508077 0 0
39.16666666666666 1.333333333333333 0
38.33333333333334 2.666666666666666 0
37.5 3.999999999999998 0
36.66666666666667 5.333333333333331 0
35.83333333333334 6.666666666666663 0
33.95522529754039 6.328360476064617 0
33.38313917118774 5.413022673900386 0
32.98346271586049 4.773540345376789 0
32.65455105751245 4.247281692019921 0
32.34544894248755 3.752718307980082 0
32.01653728413951 3.226459654623214 0
31.61686082881226 2.586977326099611 0
31.04477470245962 1.671639523935399 0
31.91542028784263 0.2786065873225665 0
31.74129117076603 0.5572131746451325 0
31.56716205368943 0.835819761967699 0
31.39303293661283 1.114426349290266 0
31.21890381953622 1.393032936612832 0
32.96424485282247 0.4311628876832687 0
32.69476804802043 0.862325775366537 0
32.42529124321838 1.293488663049805 0
32.15581443841634 1.724651550733074 0
31.8863376336143 2.155814438416343 0
33.69698502092243 0.5377432757705356 0
33.36089547356585 1.075486551541071 0
33.02480592620926 1.613229827311606 0
32.68871637885267 2.150973103082142 0
32.3526268314961 2.688716378852678 0
34.29998972789384 0.6254530513300138 0
33.90908157081258 1.250906102660027 0
33.51817341373133 1.876359153990041 0
33.12726525665006 2.501812205320055 0
32.73635709956881 3.127265256650068 0
34.86667693877283 0.7078802820033201 0
34.42425176252075 1.41576056400664 0
33.98182658626867 2.12364084600996 0
33.5394014100166 2.83152112801328 0
33.09697623376452 3.5394014100166 0
35.46968164574423 0.7955900575627983 0
34.97243785976748 1.591180115125596 0
34.47519407379074 2.386770172688394 0
33.97795028781399 3.182360230251192 0
33.48070650183724 3.977950287813991 0
36.20242181384419 0.9021704456500648 0
35.6385652853129 1.804340891300129 0
35.07470875678161 2.706511336950193 0
34.51085222825032 3.608681782600257 0
33.94699569971903 4.510852228250322 0
37.25124637882404 1.054726746010769 0
36.59204216256731 2.109453492021539 0
35.93283794631058 3.164180238032309 0
35.27363373005385 4.218906984043079 0
34.61442951379712 5.273633730053848 0

CELLS 81 342
1 0
1 1
1 2
2 0 3
2 3 4
2 4 5
2 5 6
2 6 7
2 7 8
2 8 9
2 9 10
2 10 1
2 1 11
2 11 12
2 12 13
2 13 14
2 14 15
2 15 2
2 2 16
2 16 17
2 17 18
2 18 19
2 19 20
2 20 21
2 21 22
2 22 23
2 23 0
3 0 3 24
3 0 24 25
3 0 25 26
3 0 26 27
3 0 27 28
3 0 28 23
4 3 4 29 24
4 24 29 30 25
4 25 30 31 26
4 26 31 32 27
4 27 32 33 28
4 28 33 22 23
4 4 5 34 29
4 29 34 35 30
4 30 35 36 31
4 31 36 37 32
4 32 37 38 33
4 33 38 21 22
4 5 6 39 34
4 34 39 40 35
4 35 40 41 36
4 36 41 42 37
4 37 42 43 38
4 38 43 20 21
4 6 7 44 39
4 39 44 45 40
4 40 45 46 41
4 41 46 47 42
4 42 47 48 43
4 43 48 19 20
4 7 8 49 44
4 44 49 50 45
4 45 50 51 46
4 46 51 52 47
4 47 52 53 48
4 48 53 18 19
4 8 9 54 49
4 49 54 55 50
4 50 55 56 51
4 51 56 57 52
4 52 57 58 53
4 53 58 17 18
4 9 10 59 54
4 54 59 60 55
4 55 60 61 56
4 56 61 62 57
4 57 62 63 58
4 58 63 16 17
4 10 1 11 59
4 59 11 12 60
4 60 12 13 61
4 61 13 14 62
4 62 14 15 63
4 63 15 2 16

CELL_TYPES 81
1
1
1
3
3
3
3
3
3
3
3
3
3
3
3
3
3
3
3
3
3
3
3
3
3
3
3
5
5
5
5
5
5
9
9
9
9
9
9
9
9
9
9
9
9
9
9
9
9
9
9
9
9
9
9
9
9
9
9
9
9
9
9
9
9
9
9
9
9
9
9
9
9
9
9
9
9
9
9
9
9

CELL_DATA 81
SCALARS CellEntityIds int 1
LOOKUP_TABLE default
-1
-1
-1
1
1
1
1
1
1
1
1
1
2
2
2
2
2
2
3
3
3
3
3
3
3
3
3
4
4
4
4
4
4
4
4
4
4
4
4
4
4
4
4
4
4
4
4
4
4
4
4
4
4
4
4
4
4
4
4
4
4
4
4
4
4
4
4
4
4
4
4
4
4
4
4
4
4
4
4
4
4
