# vtk DataFile Version 2.0
shape2mesh, Created by Gmsh 4.13.1 
ASCII
DATASET UNSTRUCTURED_GRID
POINTS 46 double
30 0 0
40 0 0
40 7 0
31.11111111111111 0 0
32.22222222222222 0 0
33.33333333333334 0 0
34.44444444444444 0 0
35.55555555555556 0 0
36.66666666666666 0 0
37.77777777777778 0 0
38.88888888888889 0 0
40 1.75 0
40 3.5 0
40 5.25 0
38.88888888888889 6.222222222222221 0
37.77777777777778 5.444444444444445 0
36.66666666666666 4.666666666666666 0
35.55555555555556 3.888888888888889 0
34.44444444444444 3.111111111111112 0
33.33333333333334 2.333333333333333 0
32.22222222222222 1.555555555555555 0
31.11111111111111 0.7777777777777786 0
31.11111111111111 0.1944444444444451 0
31.11111111111111 0.3888888888888895 0
31.11111111111111 0.5833333333333341 0
32.22222222222223 0.3888888888888888 0
32.22222222222223 0.7777777777777779 0
32.22222222222223 1.166666666666667 0
33.33333333333334 0.5833333333333333 0
33.33333333333334 1.166666666666667 0
33.33333333333334 1.75 0
34.44444444444445 0.7777777777777779 0
34.44444444444445 1.555555555555556 0
34.44444444444445 2.333333333333334 0
35.55555555555556 0.9722222222222223 0
35.55555555555556 1.944444444444444 0
35.55555555555556 2.916666666666667 0
36.66666666666667 1.166666666666667 0
36.66666666666667 2.333333333333333 0
36.66666666666667 3.5 0
37.77777777777778 1.361111111111111 0
37.77777777777778 2.722222222222222 0
37.77777777777778 4.083333333333334 0
38.88888888888889 1.555555555555555 0
38.88888888888889 3.111111111111111 0
38.88888888888889 4.666666666666666 0

CELLS 61 248
1 0
1 1
1 2
2 0 3
2 3 4
2 4 5
2 5 6
2 6 7
2 7 8
2 8 9
2 9 10
2 10 1
2 1 11
2 11 12
2 12 13
2 13 2
2 2 14
2 14 15
2 15 16
2 16 17
2 17 18
2 18 19
2 19 20
2 20 21
2 21 0
3 0 3 22
3 0 22 23
3 0 23 24
3 0 24 21
4 3 4 25 22
4 22 25 26 23
4 23 26 27 24
4 24 27 20 21
4 4 5 28 25
4 25 28 29 26
4 26 29 30 27
4 27 30 19 20
4 5 6 31 28
4 28 31 32 29
4 29 32 33 30
4 30 33 18 19
4 6 7 34 31
4 31 34 35 32
4 32 35 36 33
4 33 36 17 18
4 7 8 37 34
4 34 37 38 35
4 35 38 39 36
4 36 39 16 17
4 8 9 40 37
4 37 40 41 38
4 38 41 42 39
4 39 42 15 16
4 9 10 43 40
4 40 43 44 41
4 41 44 45 42
4 42 45 14 15
4 10 1 11 43
4 43 11 12 44
4 44 12 13 45
4 45 13 2 14

CELL_TYPES 61
1
1
1
3
3
3
3
3
3
3
3
3
3
3
3
3
3
3
3
3
3
3
3
3
3
5
5
5
5
9
9
9
9
9
9
9
9
9
9
9
9
9
9
9
9
9
9
9
9
9
9
9
9
9
9
9
9
9
9
9
9

CELL_DATA 61
SCALARS CellEntityIds int 1
LOOKUP_TABLE default
-1
-1
-1
1
1
1
1
1
1
1
1
1
2
2
2
2
3
3
3
3
3
3
3
3
3
4
4
4
4
4
4
4
4
4
4
4
4
4
4
4
4
4
4
4
4
4
4
4
4
4
4
4
4
4
4
4
4
4
4
4
4
