# vtk DataFile Version 2.0
shape2mesh, Created by Gmsh 4.13.1
ASCII
DATASET UNSTRUCTURED_GRID
POINTS 43 double
15 0 0
25 0 0
20 8 0
16.66666666666667 0 0
18.33333333333333 0 0
20 0 0
21.66666666666667 0 0
23.33333333333334 0 0
24.16666666666667 1.333333333333333 0
23.33333333333334 2.666666666666666 0
22.5 3.999999999999998 0
21.66666666666667 5.333333333333331 0
20.83333333333334 6.666666666666663 0
19.16666666666667 6.666666666666667 0
18.33333333333334 5.333333333333334 0
17.5 4.000000000000002 0
16.66666666666667 2.666666666666669 0
15.83333333333334 1.333333333333337 0
16.52777777777778 0.2222222222222228 0
16.38888888888889 0.4444444444444455 0
16.25 0.6666666666666681 0
16.11111111111111 0.8888888888888908 0
15.97222222222222 1.111111111111113 0
18.05555555555556 0.4444444444444442 0
17.77777777777778 0.8888888888888893 0
17.5 1.333333333333334 0
17.22222222222222 1.777777777777779 0
16.94444444444445 2.222222222222224 0
19.58333333333333 0.666666666666667 0
19.16666666666667 1.333333333333334 0
18.75 2.000000000000001 0
18.33333333333334 2.666666666666668 0
17.91666666666667 3.333333333333335 0
21.11111111111111 0.8888888888888888 0
20.55555555555556 1.777777777777778 0
20 2.666666666666667 0
19.44444444444445 3.555555555555556 0
18.88888888888889 4.444444444444446 0
22.63888888888889 1.111111111111111 0
21.94444444444444 2.222222222222222 0
21.25 3.333333333333333 0
20.55555555555556 4.444444444444445 0
19.86111111111111 5.555555555555555 0

CELLS 57 234
1 0
1 1
1 2
2 0 3
2 3 4
2 4 5
2 5 6
2 6 7
2 7 1
2 1 8
2 8 9
2 9 10
2 10 11
2 11 12
2 12 2
2 2 13
2 13 14
2 14 15
2 15 16
2 16 17
2 17 0
3 0 3 18
3 0 18 19
3 0 19 20
3 0 20 21
3 0 21 22
3 0 22 17
4 3 4 23 18
4 18 23 24 19
4 19 24 25 20
4 20 25 26 21
4 21 26 27 22
4 22 27 16 17
4 4 5 28 23
4 23 28 29 24
4 24 29 30 25
4 25 30 31 26
4 26 31 32 27
4 27 32 15 16
4 5 6 33 28
4 28 33 34 29
4 29 34 35 30
4 30 35 36 31
4 31 36 37 32
4 32 37 14 15
4 6 7 38 33
4 33 38 39 34
4 34 39 40 35
4 35 40 41 36
4 36 41 42 37
4 37 42 13 14
4 7 1 8 38
4 38 8 9 39
4 39 9 10 40
4 40 10 11 41
4 41 11 12 42
4 42 12 2 13

CELL_TYPES 57
1
1
1
3
3
3
3
3
3
3
3
3
3
3
3
3
3
3
3
3
3
5
5
5
5
5
5
9
9
9
9
9
9
9
9
9
9
9
9
9
9
9
9
9
9
9
9
9
9
9
9
9
9
9
9
9
9

CELL_DATA 57
SCALARS CellEntityIds int 1
LOOKUP_TABLE default
-1
-1
-1
1
1
1
1
1
1
2
2
2
2
2
2
3
3
3
3
3
3
4
4
4
4
4
4
4
4
4
4
4
4
4
4
4
4
4
4
4
4
4
4
4
4
4
4
4
4
4
4
4
4
4
4
4
4
