# vtk DataFile Version 2.0
shape2mesh, Created by Gmsh 4.13.1 
ASCII
DATASET UNSTRUCTURED_GRID
POINTS 43 double
45 0 0
55 0 0
50 8 0
46.66666666666666 0 0
48.33333333333334 0 0
50 0 0
51.66666666666666 0 0
53.33333333333334 0 0
54.16666666666666 1.333333333333333 0
53.33333333333334 2.666666666666666 0
52.5 3.999999999999998 0
51.66666666666667 5.333333333333331 0
50.83333333333334 6.666666666666663 0
49.16666666666666 6.666666666666667 0
48.33333333333334 5.333333333333334 0
47.5 4.000000000000002 0
46.66666666666667 2.666666666666669 0
45.83333333333334 1.333333333333337 0
50.55555555555556 6.666666666666664 0
50.27777777777778 6.666666666666666 0
50 6.666666666666666 0
49.72222222222222 6.666666666666666 0
49.44444444444444 6.666666666666666 0
51.11111111111111 5.333333333333332 0
50.55555555555556 5.333333333333332 0
50 5.333333333333332 0
49.44444444444444 5.333333333333333 0
48.88888888888889 5.333333333333334 0
51.66666666666667 3.999999999999999 0
50.83333333333334 3.999999999999999 0
50 4 0
49.16666666666667 4 0
48.33333333333334 4.000000000000001 0
52.22222222222222 2.666666666666666 0
51.11111111111111 2.666666666666667 0
50 2.666666666666667 0
48.88888888888889 2.666666666666668 0
47.77777777777778 2.666666666666668 0
52.77777777777778 1.333333333333334 0
51.38888888888889 1.333333333333334 0
50 1.333333333333334 0
48.61111111111111 1.333333333333336 0
47.22222222222222 1.333333333333336 0

CELLS 57 234
1 0
1 1
1 2
2 0 3
2 3 4
2 4 5
2 5 6
2 6 7
2 7 1
2 1 8
2 8 9
2 9 10
2 10 11
2 11 12
2 12 2
2 2 13
2 13 14
2 14 15
2 15 16
2 16 17
2 17 0
3 2 18 12
3 2 19 18
3 2 20 19
3 2 21 20
3 2 22 21
3 2 13 22
4 12 18 23 11
4 18 19 24 23
4 19 20 25 24
4 20 21 26 25
4 21 22 27 26
4 22 13 14 27
4 11 23 28 10
4 23 24 29 28
4 24 25 30 29
4 25 26 31 30
4 26 27 32 31
4 27 14 15 32
4 10 28 33 9
4 28 29 34 33
4 29 30 35 34
4 30 31 36 35
4 31 32 37 36
4 32 15 16 37
4 9 33 38 8
4 33 34 39 38
4 34 35 40 39
4 35 36 41 40
4 36 37 42 41
4 37 16 17 42
4 8 38 7 1
4 38 39 6 7
4 39 40 5 6
4 40 41 4 5
4 41 42 3 4
4 42 17 0 3

CELL_TYPES 57
1
1
1
3
3
3
3
3
3
3
3
3
3
3
3
3
3
3
3
3
3
5
5
5
5
5
5
9
9
9
9
9
9
9
9
9
9
9
9
9
9
9
9
9
9
9
9
9
9
9
9
9
9
9
9
9
9

CELL_DATA 57
SCALARS CellEntityIds int 1
LOOKUP_TABLE default
-1
-1
-1
1
1
1
1
1
1
2
2
2
2
2
2
3
3
3
3
3
3
4
4
4
4
4
4
4
4
4
4
4
4
4
4
4
4
4
4
4
4
4
4
4
4
4
4
4
4
4
4
4
4
4
4
4
4
