# vtk DataFile Version 2.0
shape2mesh, Created by Gmsh 4.13.1
ASCII
DATASET UNSTRUCTURED_GRID
POINTS 93 double
120 0 0
130 0 0
130 7 0
140 0 0
140 7 0
121.1111111111111 0 0
122.2222222222222 0 0
123.3333333333333 0 0
124.4444444444444 0 0
125.5555555555556 0 0
126.6666666666667 0 0
127.7777777777778 0 0
128.8888888888889 0 0
130 1.75 0
130 3.5 0
130 5.25 0
127.5 5.25 0
125 3.5 0
122.5 1.750000000000001 0
132.5 5.25 0
135 3.5 0
137.5 1.750000000000001 0
137.5 0 0
135 0 0
132.5 0 0
140 0.7777777777777777 0
140 1.555555555555555 0
140 2.333333333333333 0
140 3.111111111111111 0
140 3.888888888888889 0
140 4.666666666666666 0
140 5.444444444444444 0
140 6.222222222222221 0
137.5 7 0
135 7 0
132.5 7 0
127.7777777777778 5.25 0
128.0555555555556 5.25 0
128.3333333333333 5.25 0
128.6111111111111 5.25 0
128.8888888888889 5.25 0
129.1666666666667 5.25 0
129.4444444444445 5.25 0
129.7222222222222 5.25 0
125.5555555555556 3.5 0
126.1111111111111 3.5 0
126.6666666666667 3.5 0
127.2222222222222 3.5 0
127.7777777777778 3.5 0
128.3333333333333 3.5 0
128.8888888888889 3.5 0
129.4444444444445 3.5 0
123.3333333333333 1.750000000000001 0
124.1666666666667 1.750000000000001 0
125 1.750000000000001 0
125.8333333333333 1.75 0
126.6666666666667 1.750000000000001 0
127.5 1.75 0
128.3333333333333 1.75 0
129.1666666666667 1.75 0
130.625 5.25 0
131.25 5.25 0
131.875 5.249999999999999 0
131.25 3.5 0
132.5 3.499999999999999 0
133.75 3.499999999999999 0
131.875 1.75 0
133.75 1.75 0
135.625 1.75 0
132.5 5.444444444444444 0
132.5 5.638888888888888 0
132.5 5.833333333333333 0
132.5 6.027777777777777 0
132.5 6.222222222222221 0
132.5 6.416666666666666 0
132.5 6.611111111111111 0
132.5 6.805555555555555 0
135 3.888888888888888 0
135 4.277777777777777 0
135 4.666666666666665 0
135 5.055555555555554 0
135 5.444444444444444 0
135 5.833333333333332 0
135 6.222222222222221 0
135 6.611111111111111 0
137.5 2.333333333333332 0
137.5 2.916666666666666 0
137.5 3.499999999999999 0
137.5 4.083333333333332 0
137.5 4.666666666666667 0
137.5 5.249999999999999 0
137.5 5.833333333333332 0
137.5 6.416666666666666 0

CELLS 131 542
1 0
1 1
1 2
1 3
1 4
2 0 5
2 5 6
2 6 7
2 7 8
2 8 9
2 9 10
2 10 11
2 11 12
2 12 1
2 1 13
2 13 14
2 14 15
2 15 2
2 2 16
2 16 17
2 17 18
2 18 0
2 2 19
2 19 20
2 20 21
2 21 3
2 3 22
2 22 23
2 23 24
2 24 1
2 3 25
2 25 26
2 26 27
2 27 28
2 28 29
2 29 30
2 30 31
2 31 32
2 32 4
2 4 33
2 33 34
2 34 35
2 35 2
3 2 16 36
3 2 36 37
3 2 37 38
3 2 38 39
3 2 39 40
3 2 40 41
3 2 41 42
3 2 42 43
3 2 43 15
4 16 17 44 36
4 36 44 45 37
4 37 45 46 38
4 38 46 47 39
4 39 47 48 40
4 40 48 49 41
4 41 49 50 42
4 42 50 51 43
4 43 51 14 15
4 17 18 52 44
4 44 52 53 45
4 45 53 54 46
4 46 54 55 47
4 47 55 56 48
4 48 56 57 49
4 49 57 58 50
4 50 58 59 51
4 51 59 13 14
4 18 0 5 52
4 52 5 6 53
4 53 6 7 54
4 54 7 8 55
4 55 8 9 56
4 56 9 10 57
4 57 10 11 58
4 58 11 12 59
4 59 12 1 13
3 2 15 60
3 2 60 61
3 2 61 62
3 2 62 19
4 15 14 63 60
4 60 63 64 61
4 61 64 65 62
4 62 65 20 19
4 14 13 66 63
4 63 66 67 64
4 64 67 68 65
4 65 68 21 20
4 13 1 24 66
4 66 24 23 67
4 67 23 22 68
4 68 22 3 21
3 2 19 69
3 2 69 70
3 2 70 71
3 2 71 72
3 2 72 73
3 2 73 74
3 2 74 75
3 2 75 76
3 2 76 35
4 19 20 77 69
4 69 77 78 70
4 70 78 79 71
4 71 79 80 72
4 72 80 81 73
4 73 81 82 74
4 74 82 83 75
4 75 83 84 76
4 76 84 34 35
4 20 21 85 77
4 77 85 86 78
4 78 86 87 79
4 79 87 88 80
4 80 88 89 81
4 81 89 90 82
4 82 90 91 83
4 83 91 92 84
4 84 92 33 34
4 21 3 25 85
4 85 25 26 86
4 86 26 27 87
4 87 27 28 88
4 88 28 29 89
4 89 29 30 90
4 90 30 31 91
4 91 31 32 92
4 92 32 4 33

CELL_TYPES 131
1
1
1
1
1
3
3
3
3
3
3
3
3
3
3
3
3
3
3
3
3
3
3
3
3
3
3
3
3
3
3
3
3
3
3
3
3
3
3
3
3
3
3
5
5
5
5
5
5
5
5
5
9
9
9
9
9
9
9
9
9
9
9
9
9
9
9
9
9
9
9
9
9
9
9
9
9
9
9
5
5
5
5
9
9
9
9
9
9
9
9
9
9
9
9
5
5
5
5
5
5
5
5
5
9
9
9
9
9
9
9
9
9
9
9
9
9
9
9
9
9
9
9
9
9
9
9
9
9
9
9

CELL_DATA 131
SCALARS CellEntityIds int 1
LOOKUP_TABLE default
-1
-1
-1
-1
-1
1
1
1
1
1
1
1
1
1
2
2
2
2
3
3
3
3
4
4
4
4
5
5
5
5
6
6
6
6
6
6
6
6
6
7
7
7
7
8
8
8
8
8
8
8
8
8
8
8
8
8
8
8
8
8
8
8
8
8
8
8
8
8
8
8
8
8
8
8
8
8
8
8
8
9
9
9
9
9
9
9
9
9
9
9
9
9
9
9
9
10
10
10
10
10
10
10
10
10
10
10
10
10
10
10
10
10
10
10
10
10
10
10
10
10
10
10
10
10
10
10
10
10
10
10
10
