# vtk DataFile Version 2.0
shape2mesh, Created by Gmsh 4.13.1
ASCII
DATASET UNSTRUCTURED_GRID
POINTS 253 double
95 0 0
105 0 0
105 7 0
115 0 0
115 7 0
96.11111111111111 0 0
97.22222222222223 0 0
98.33333333333333 0 0
99.44444444444444 0 0
100.5555555555556 0 0
101.6666666666667 0 0
102.7777777777778 0 0
103.8888888888889 0 0
105 0.7777777777777777 0
105 1.555555555555555 0
105 2.333333333333333 0
105 3.111111111111111 0
105 3.888888888888889 0
105 4.666666666666666 0
105 5.444444444444444 0
105 6.222222222222221 0
103.8888888888889 6.222222222222221 0
102.7777777777778 5.444444444444445 0
101.6666666666667 4.666666666666666 0
100.5555555555556 3.888888888888889 0
99.44444444444444 3.111111111111112 0
98.33333333333333 2.333333333333333 0
97.22222222222223 1.555555555555555 0
96.11111111111111 0.7777777777777786 0
106.1111111111111 6.222222222222221 0
107.2222222222222 5.444444444444445 0
108.3333333333333 4.666666666666666 0
109.4444444444444 3.888888888888889 0
110.5555555555556 3.111111111111112 0
111.6666666666667 2.333333333333333 0
112.7777777777778 1.555555555555555 0
113.8888888888889 0.7777777777777786 0
113.8888888888889 0 0
112.7777777777778 0 0
111.6666666666667 0 0
110.5555555555556 0 0
109.4444444444444 0 0
108.3333333333333 0 0
107.2222222222222 0 0
106.1111111111111 0 0
115 0.7777777777777777 0
115 1.555555555555555 0
115 2.333333333333333 0
115 3.111111111111111 0
115 3.888888888888889 0
115 4.666666666666666 0
115 5.444444444444444 0
115 6.222222222222221 0
113.8888888888889 7 0
112.7777777777778 7 0
111.6666666666667 7 0
110.5555555555556 7 0
109.4444444444444 7 0
108.3333333333333 7 0
107.2222222222222 7 0
106.1111111111111 7 0
104.0123456790124 6.222222222222222 0
104.1358024691358 6.222222222222221 0
104.2592592592593 6.222222222222221 0
104.3827160493827 6.222222222222221 0
104.5061728395062 6.222222222222221 0
104.6296296296296 6.222222222222221 0
104.7530864197531 6.222222222222221 0
104.8765432098765 6.222222222222221 0
103.0246913580247 5.444444444444445 0
103.2716049382716 5.444444444444445 0
103.5185185185185 5.444444444444445 0
103.7654320987654 5.444444444444445 0
104.0123456790124 5.444444444444445 0
104.2592592592593 5.444444444444445 0
104.5061728395062 5.444444444444445 0
104.7530864197531 5.444444444444444 0
102.037037037037 4.666666666666668 0
102.4074074074074 4.666666666666666 0
102.7777777777778 4.666666666666667 0
103.1481481481482 4.666666666666666 0
103.5185185185185 4.666666666666666 0
103.8888888888889 4.666666666666666 0
104.2592592592593 4.666666666666666 0
104.6296296296296 4.666666666666666 0
101.0493827160494 3.888888888888889 0
101.5432098765432 3.888888888888889 0
102.037037037037 3.888888888888889 0
102.5308641975309 3.888888888888889 0
103.0246913580247 3.888888888888889 0
103.5185185185185 3.888888888888889 0
104.0123456790124 3.888888888888889 0
104.5061728395062 3.888888888888889 0
100.0617283950617 3.111111111111112 0
100.679012345679 3.111111111111112 0
101.2962962962963 3.111111111111112 0
101.9135802469136 3.111111111111112 0
102.5308641975309 3.111111111111112 0
103.1481481481482 3.111111111111111 0
103.7654320987654 3.111111111111111 0
104.3827160493827 3.111111111111111 0
99.07407407407408 2.333333333333333 0
99.81481481481482 2.333333333333333 0
100.5555555555556 2.333333333333333 0
101.2962962962963 2.333333333333333 0
102.037037037037 2.333333333333333 0
102.7777777777778 2.333333333333333 0
103.5185185185185 2.333333333333333 0
104.2592592592593 2.333333333333333 0
98.08641975308642 1.555555555555556 0
98.95061728395062 1.555555555555555 0
99.81481481481482 1.555555555555556 0
100.679012345679 1.555555555555555 0
101.5432098765432 1.555555555555556 0
102.4074074074074 1.555555555555556 0
103.2716049382716 1.555555555555555 0
104.1358024691358 1.555555555555555 0
97.09876543209877 0.7777777777777786 0
98.08641975308642 0.777777777777779 0
99.07407407407408 0.7777777777777786 0
100.0617283950617 0.7777777777777786 0
101.0493827160494 0.7777777777777781 0
102.037037037037 0.7777777777777781 0
103.0246913580247 0.7777777777777781 0
104.0123456790124 0.7777777777777781 0
105.1234567901235 6.222222222222221 0
105.2469135802469 6.222222222222221 0
105.3703703703704 6.222222222222221 0
105.4938271604938 6.222222222222221 0
105.6172839506173 6.222222222222221 0
105.7407407407407 6.222222222222221 0
105.8641975308642 6.222222222222221 0
105.9876543209876 6.222222222222221 0
105.2469135802469 5.444444444444444 0
105.4938271604938 5.444444444444444 0
105.7407407407407 5.444444444444445 0
105.9876543209876 5.444444444444444 0
106.2345679012346 5.444444444444444 0
106.4814814814815 5.444444444444444 0
106.7283950617284 5.444444444444444 0
106.9753086419753 5.444444444444444 0
105.3703703703704 4.666666666666666 0
105.7407407407407 4.666666666666666 0
106.1111111111111 4.666666666666666 0
106.4814814814815 4.666666666666666 0
106.8518518518518 4.666666666666666 0
107.2222222222222 4.666666666666666 0
107.5925925925926 4.666666666666666 0
107.962962962963 4.666666666666666 0
105.4938271604938 3.888888888888889 0
105.9876543209877 3.888888888888889 0
106.4814814814815 3.888888888888889 0
106.9753086419753 3.888888888888888 0
107.4691358024691 3.888888888888888 0
107.962962962963 3.888888888888888 0
108.4567901234568 3.888888888888888 0
108.9506172839506 3.888888888888888 0
105.6172839506173 3.111111111111111 0
106.2345679012346 3.111111111111111 0
106.8518518518518 3.111111111111111 0
107.4691358024691 3.111111111111111 0
108.0864197530864 3.111111111111111 0
108.7037037037037 3.111111111111111 0
109.320987654321 3.111111111111111 0
109.9382716049383 3.111111111111111 0
105.7407407407407 2.333333333333333 0
106.4814814814815 2.333333333333333 0
107.2222222222222 2.333333333333333 0
107.962962962963 2.333333333333333 0
108.7037037037037 2.333333333333333 0
109.4444444444444 2.333333333333332 0
110.1851851851852 2.333333333333332 0
110.9259259259259 2.333333333333332 0
105.8641975308642 1.555555555555556 0
106.7283950617284 1.555555555555555 0
107.5925925925926 1.555555555555555 0
108.4567901234568 1.555555555555555 0
109.320987654321 1.555555555555554 0
110.1851851851852 1.555555555555555 0
111.0493827160494 1.555555555555555 0
111.9135802469136 1.555555555555554 0
105.9876543209876 0.7777777777777777 0
106.9753086419753 0.7777777777777772 0
107.962962962963 0.7777777777777772 0
108.9506172839506 0.7777777777777768 0
109.9382716049383 0.7777777777777772 0
110.9259259259259 0.7777777777777768 0
111.9135802469136 0.7777777777777772 0
112.9012345679012 0.7777777777777768 0
106.1111111111111 6.308641975308642 0
106.1111111111111 6.395061728395062 0
106.1111111111111 6.481481481481481 0
106.1111111111111 6.5679012345679 0
106.1111111111111 6.654320987654321 0
106.1111111111111 6.74074074074074 0
106.1111111111111 6.82716049382716 0
106.1111111111111 6.91358024691358 0
107.2222222222222 5.617283950617283 0
107.2222222222222 5.790123456790123 0
107.2222222222222 5.962962962962962 0
107.2222222222222 6.135802469135802 0
107.2222222222222 6.308641975308642 0
107.2222222222222 6.481481481481481 0
107.2222222222222 6.65432098765432 0
107.2222222222222 6.82716049382716 0
108.3333333333333 4.925925925925926 0
108.3333333333333 5.185185185185184 0
108.3333333333333 5.444444444444444 0
108.3333333333333 5.703703703703702 0
108.3333333333333 5.962962962962963 0
108.3333333333333 6.222222222222221 0
108.3333333333333 6.481481481481481 0
108.3333333333333 6.74074074074074 0
109.4444444444444 4.234567901234567 0
109.4444444444444 4.580246913580247 0
109.4444444444444 4.925925925925925 0
109.4444444444444 5.271604938271604 0
109.4444444444444 5.617283950617284 0
109.4444444444444 5.962962962962962 0
109.4444444444444 6.308641975308642 0
109.4444444444444 6.65432098765432 0
110.5555555555556 3.54320987654321 0
110.5555555555556 3.975308641975309 0
110.5555555555556 4.407407407407407 0
110.5555555555556 4.839506172839505 0
110.5555555555556 5.271604938271604 0
110.5555555555556 5.703703703703703 0
110.5555555555556 6.135802469135802 0
110.5555555555556 6.5679012345679 0
111.6666666666667 2.85185185185185 0
111.6666666666667 3.370370370370368 0
111.6666666666667 3.888888888888888 0
111.6666666666667 4.407407407407407 0
111.6666666666667 4.925925925925926 0
111.6666666666667 5.444444444444444 0
111.6666666666667 5.962962962962962 0
111.6666666666667 6.481481481481481 0
112.7777777777778 2.160493827160493 0
112.7777777777778 2.76543209876543 0
112.7777777777778 3.370370370370369 0
112.7777777777778 3.975308641975307 0
112.7777777777778 4.580246913580247 0
112.7777777777778 5.185185185185184 0
112.7777777777778 5.790123456790123 0
112.7777777777778 6.395061728395061 0
113.8888888888889 1.469135802469135 0
113.8888888888889 2.160493827160493 0
113.8888888888889 2.85185185185185 0
113.8888888888889 3.543209876543209 0
113.8888888888889 4.234567901234568 0
113.8888888888889 4.925925925925925 0
113.8888888888889 5.617283950617283 0
113.8888888888889 6.308641975308641 0

CELLS 311 1387
1 0
1 1
1 2
1 3
1 4
2 0 5
2 5 6
2 6 7
2 7 8
2 8 9
2 9 10
2 10 11
2 11 12
2 12 1
2 1 13
2 13 14
2 14 15
2 15 16
2 16 17
2 17 18
2 18 19
2 19 20
2 20 2
2 2 21
2 21 22
2 22 23
2 23 24
2 24 25
2 25 26
2 26 27
2 27 28
2 28 0
2 2 29
2 29 30
2 30 31
2 31 32
2 32 33
2 33 34
2 34 35
2 35 36
2 36 3
2 3 37
2 37 38
2 38 39
2 39 40
2 40 41
2 41 42
2 42 43
2 43 44
2 44 1
2 3 45
2 45 46
2 46 47
2 47 48
2 48 49
2 49 50
2 50 51
2 51 52
2 52 4
2 4 53
2 53 54
2 54 55
2 55 56
2 56 57
2 57 58
2 58 59
2 59 60
2 60 2
3 2 21 61
3 2 61 62
3 2 62 63
3 2 63 64
3 2 64 65
3 2 65 66
3 2 66 67
3 2 67 68
3 2 68 20
4 21 22 69 61
4 61 69 70 62
4 62 70 71 63
4 63 71 72 64
4 64 72 73 65
4 65 73 74 66
4 66 74 75 67
4 67 75 76 68
4 68 76 19 20
4 22 23 77 69
4 69 77 78 70
4 70 78 79 71
4 71 79 80 72
4 72 80 81 73
4 73 81 82 74
4 74 82 83 75
4 75 83 84 76
4 76 84 18 19
4 23 24 85 77
4 77 85 86 78
4 78 86 87 79
4 79 87 88 80
4 80 88 89 81
4 81 89 90 82
4 82 90 91 83
4 83 91 92 84
4 84 92 17 18
4 24 25 93 85
4 85 93 94 86
4 86 94 95 87
4 87 95 96 88
4 88 96 97 89
4 89 97 98 90
4 90 98 99 91
4 91 99 100 92
4 92 100 16 17
4 25 26 101 93
4 93 101 102 94
4 94 102 103 95
4 95 103 104 96
4 96 104 105 97
4 97 105 106 98
4 98 106 107 99
4 99 107 108 100
4 100 108 15 16
4 26 27 109 101
4 101 109 110 102
4 102 110 111 103
4 103 111 112 104
4 104 112 113 105
4 105 113 114 106
4 106 114 115 107
4 107 115 116 108
4 108 116 14 15
4 27 28 117 109
4 109 117 118 110
4 110 118 119 111
4 111 119 120 112
4 112 120 121 113
4 113 121 122 114
4 114 122 123 115
4 115 123 124 116
4 116 124 13 14
4 28 0 5 117
4 117 5 6 118
4 118 6 7 119
4 119 7 8 120
4 120 8 9 121
4 121 9 10 122
4 122 10 11 123
4 123 11 12 124
4 124 12 1 13
3 2 20 125
3 2 125 126
3 2 126 127
3 2 127 128
3 2 128 129
3 2 129 130
3 2 130 131
3 2 131 132
3 2 132 29
4 20 19 133 125
4 125 133 134 126
4 126 134 135 127
4 127 135 136 128
4 128 136 137 129
4 129 137 138 130
4 130 138 139 131
4 131 139 140 132
4 132 140 30 29
4 19 18 141 133
4 133 141 142 134
4 134 142 143 135
4 135 143 144 136
4 136 144 145 137
4 137 145 146 138
4 138 146 147 139
4 139 147 148 140
4 140 148 31 30
4 18 17 149 141
4 141 149 150 142
4 142 150 151 143
4 143 151 152 144
4 144 152 153 145
4 145 153 154 146
4 146 154 155 147
4 147 155 156 148
4 148 156 32 31
4 17 16 157 149
4 149 157 158 150
4 150 158 159 151
4 151 159 160 152
4 152 160 161 153
4 153 161 162 154
4 154 162 163 155
4 155 163 164 156
4 156 164 33 32
4 16 15 165 157
4 157 165 166 158
4 158 166 167 159
4 159 167 168 160
4 160 168 169 161
4 161 169 170 162
4 162 170 171 163
4 163 171 172 164
4 164 172 34 33
4 15 14 173 165
4 165 173 174 166
4 166 174 175 167
4 167 175 176 168
4 168 176 177 169
4 169 177 178 170
4 170 178 179 171
4 171 179 180 172
4 172 180 35 34
4 14 13 181 173
4 173 181 182 174
4 174 182 183 175
4 175 183 184 176
4 176 184 185 177
4 177 185 186 178
4 178 186 187 179
4 179 187 188 180
4 180 188 36 35
4 13 1 44 181
4 181 44 43 182
4 182 43 42 183
4 183 42 41 184
4 184 41 40 185
4 185 40 39 186
4 186 39 38 187
4 187 38 37 188
4 188 37 3 36
3 2 29 189
3 2 189 190
3 2 190 191
3 2 191 192
3 2 192 193
3 2 193 194
3 2 194 195
3 2 195 196
3 2 196 60
4 29 30 197 189
4 189 197 198 190
4 190 198 199 191
4 191 199 200 192
4 192 200 201 193
4 193 201 202 194
4 194 202 203 195
4 195 203 204 196
4 196 204 59 60
4 30 31 205 197
4 197 205 206 198
4 198 206 207 199
4 199 207 208 200
4 200 208 209 201
4 201 209 210 202
4 202 210 211 203
4 203 211 212 204
4 204 212 58 59
4 31 32 213 205
4 205 213 214 206
4 206 214 215 207
4 207 215 216 208
4 208 216 217 209
4 209 217 218 210
4 210 218 219 211
4 211 219 220 212
4 212 220 57 58
4 32 33 221 213
4 213 221 222 214
4 214 222 223 215
4 215 223 224 216
4 216 224 225 217
4 217 225 226 218
4 218 226 227 219
4 219 227 228 220
4 220 228 56 57
4 33 34 229 221
4 221 229 230 222
4 222 230 231 223
4 223 231 232 224
4 224 232 233 225
4 225 233 234 226
4 226 234 235 227
4 227 235 236 228
4 228 236 55 56
4 34 35 237 229
4 229 237 238 230
4 230 238 239 231
4 231 239 240 232
4 232 240 241 233
4 233 241 242 234
4 234 242 243 235
4 235 243 244 236
4 236 244 54 55
4 35 36 245 237
4 237 245 246 238
4 238 246 247 239
4 239 247 248 240
4 240 248 249 241
4 241 249 250 242
4 242 250 251 243
4 243 251 252 244
4 244 252 53 54
4 36 3 45 245
4 245 45 46 246
4 246 46 47 247
4 247 47 48 248
4 248 48 49 249
4 249 49 50 250
4 250 50 51 251
4 251 51 52 252
4 252 52 4 53

CELL_TYPES 311
1
1
1
1
1
3
3
3
3
3
3
3
3
3
3
3
3
3
3
3
3
3
3
3
3
3
3
3
3
3
3
3
3
3
3
3
3
3
3
3
3
3
3
3
3
3
3
3
3
3
3
3
3
3
3
3
3
3
3
3
3
3
3
3
3
3
3
3
5
5
5
5
5
5
5
5
5
9
9
9
9
9
9
9
9
9
9
9
9
9
9
9
9
9
9
9
9
9
9
9
9
9
9
9
9
9
9
9
9
9
9
9
9
9
9
9
9
9
9
9
9
9
9
9
9
9
9
9
9
9
9
9
9
9
9
9
9
9
9
9
9
9
9
9
9
9
9
9
9
5
5
5
5
5
5
5
5
5
9
9
9
9
9
9
9
9
9
9
9
9
9
9
9
9
9
9
9
9
9
9
9
9
9
9
9
9
9
9
9
9
9
9
9
9
9
9
9
9
9
9
9
9
9
9
9
9
9
9
9
9
9
9
9
9
9
9
9
9
9
9
9
9
9
9
9
9
9
9
9
9
5
5
5
5
5
5
5
5
5
9
9
9
9
9
9
9
9
9
9
9
9
9
9
9
9
9
9
9
9
9
9
9
9
9
9
9
9
9
9
9
9
9
9
9
9
9
9
9
9
9
9
9
9
9
9
9
9
9
9
9
9
9
9
9
9
9
9
9
9
9
9
9
9
9
9
9
9
9
9
9
9

CELL_DATA 311
SCALARS CellEntityIds int 1
LOOKUP_TABLE default
-1
-1
-1
-1
-1
1
1
1
1
1
1
1
1
1
2
2
2
2
2
2
2
2
2
3
3
3
3
3
3
3
3
3
4
4
4
4
4
4
4
4
4
5
5
5
5
5
5
5
5
5
6
6
6
6
6
6
6
6
6
7
7
7
7
7
7
7
7
7
8
8
8
8
8
8
8
8
8
8
8
8
8
8
8
8
8
8
8
8
8
8
8
8
8
8
8
8
8
8
8
8
8
8
8
8
8
8
8
8
8
8
8
8
8
8
8
8
8
8
8
8
8
8
8
8
8
8
8
8
8
8
8
8
8
8
8
8
8
8
8
8
8
8
8
8
8
8
8
8
8
9
9
9
9
9
9
9
9
9
9
9
9
9
9
9
9
9
9
9
9
9
9
9
9
9
9
9
9
9
9
9
9
9
9
9
9
9
9
9
9
9
9
9
9
9
9
9
9
9
9
9
9
9
9
9
9
9
9
9
9
9
9
9
9
9
9
9
9
9
9
9
9
9
9
9
9
9
9
9
9
9
10
10
10
10
10
10
10
10
10
10
10
10
10
10
10
10
10
10
10
10
10
10
10
10
10
10
10
10
10
10
10
10
10
10
10
10
10
10
10
10
10
10
10
10
10
10
10
10
10
10
10
10
10
10
10
10
10
10
10
10
10
10
10
10
10
10
10
10
10
10
10
10
10
10
10
10
10
10
10
10
10
