# vtk DataFile Version 2.0
shape2mesh, Created by Gmsh 4.13.1
ASCII
DATASET UNSTRUCTURED_GRID
POINTS 253 double
45 0 0
55 0 0
55 7 0
65 0 0
65 7 0
46.11111111111111 0 0
47.22222222222222 0 0
48.33333333333334 0 0
49.44444444444444 0 0
50.55555555555556 0 0
51.66666666666666 0 0
52.77777777777778 0 0
53.88888888888889 0 0
55 0.7777777777777777 0
55 1.555555555555555 0
55 2.333333333333333 0
55 3.111111111111111 0
55 3.888888888888889 0
55 4.666666666666666 0
55 5.444444444444444 0
55 6.222222222222221 0
53.88888888888889 6.222222222222221 0
52.77777777777778 5.444444444444445 0
51.66666666666666 4.666666666666666 0
50.55555555555556 3.888888888888889 0
49.44444444444444 3.111111111111112 0
48.33333333333334 2.333333333333333 0
47.22222222222222 1.555555555555555 0
46.11111111111111 0.7777777777777786 0
56.11111111111111 6.222222222222221 0
57.22222222222222 5.444444444444445 0
58.33333333333334 4.666666666666666 0
59.44444444444444 3.888888888888889 0
60.55555555555556 3.111111111111112 0
61.66666666666666 2.333333333333333 0
62.77777777777778 1.555555555555555 0
63.88888888888889 0.7777777777777786 0
63.88888888888889 0 0
62.77777777777778 0 0
61.66666666666666 0 0
60.55555555555556 0 0
59.44444444444444 0 0
58.33333333333334 0 0
57.22222222222222 0 0
56.11111111111111 0 0
65 0.7777777777777777 0
65 1.555555555555555 0
65 2.333333333333333 0
65 3.111111111111111 0
65 3.888888888888889 0
65 4.666666666666666 0
65 5.444444444444444 0
65 6.222222222222221 0
63.88888888888889 7 0
62.77777777777778 7 0
61.66666666666666 7 0
60.55555555555556 7 0
59.44444444444444 7 0
58.33333333333334 7 0
57.22222222222222 7 0
56.11111111111111 7 0
46.11111111111111 0.08641975308642014 0
46.11111111111111 0.1728395061728398 0
46.11111111111111 0.25925925925926 0
46.11111111111111 0.3456790123456797 0
46.11111111111111 0.4320987654320994 0
46.11111111111111 0.5185185185185193 0
46.11111111111111 0.6049382716049392 0
46.11111111111111 0.6913580246913589 0
47.22222222222223 0.1728395061728394 0
47.22222222222223 0.345679012345679 0
47.22222222222223 0.5185185185185182 0
47.22222222222223 0.6913580246913582 0
47.22222222222223 0.8641975308641978 0
47.22222222222223 1.037037037037037 0
47.22222222222223 1.209876543209877 0
47.22222222222223 1.382716049382716 0
48.33333333333334 0.2592592592592591 0
48.33333333333334 0.5185185185185184 0
48.33333333333334 0.7777777777777777 0
48.33333333333334 1.037037037037037 0
48.33333333333334 1.296296296296296 0
48.33333333333334 1.555555555555555 0
48.33333333333334 1.814814814814814 0
48.33333333333334 2.074074074074074 0
49.44444444444445 0.3456790123456794 0
49.44444444444445 0.6913580246913582 0
49.44444444444445 1.037037037037037 0
49.44444444444445 1.382716049382716 0
49.44444444444445 1.728395061728396 0
49.44444444444445 2.074074074074074 0
49.44444444444445 2.419753086419753 0
49.44444444444445 2.765432098765432 0
50.55555555555556 0.4320987654320987 0
50.55555555555556 0.8641975308641974 0
50.55555555555556 1.296296296296296 0
50.55555555555556 1.728395061728395 0
50.55555555555556 2.160493827160494 0
50.55555555555556 2.592592592592593 0
50.55555555555556 3.024691358024691 0
50.55555555555556 3.45679012345679 0
51.66666666666667 0.518518518518519 0
51.66666666666667 1.037037037037037 0
51.66666666666667 1.555555555555555 0
51.66666666666667 2.074074074074074 0
51.66666666666667 2.592592592592593 0
51.66666666666667 3.111111111111111 0
51.66666666666667 3.629629629629629 0
51.66666666666667 4.148148148148147 0
52.77777777777778 0.6049382716049381 0
52.77777777777778 1.209876543209877 0
52.77777777777778 1.814814814814815 0
52.77777777777778 2.419753086419753 0
52.77777777777778 3.024691358024691 0
52.77777777777778 3.629629629629629 0
52.77777777777778 4.234567901234568 0
52.77777777777778 4.839506172839505 0
53.88888888888889 0.6913580246913584 0
53.88888888888889 1.382716049382716 0
53.88888888888889 2.074074074074074 0
53.88888888888889 2.765432098765432 0
53.88888888888889 3.45679012345679 0
53.88888888888889 4.148148148148147 0
53.88888888888889 4.839506172839505 0
53.88888888888889 5.530864197530863 0
63.88888888888889 0.08641975308641969 0
63.88888888888889 0.1728395061728394 0
63.88888888888889 0.2592592592592595 0
63.88888888888889 0.3456790123456797 0
63.88888888888889 0.4320987654320989 0
63.88888888888889 0.518518518518519 0
63.88888888888889 0.6049382716049387 0
63.88888888888889 0.6913580246913589 0
62.77777777777777 0.1728395061728394 0
62.77777777777777 0.3456790123456792 0
62.77777777777777 0.5185185185185184 0
62.77777777777777 0.691358024691358 0
62.77777777777777 0.8641975308641974 0
62.77777777777777 1.037037037037037 0
62.77777777777777 1.209876543209876 0
62.77777777777777 1.382716049382716 0
61.66666666666666 0.2592592592592591 0
61.66666666666666 0.5185185185185182 0
61.66666666666666 0.7777777777777772 0
61.66666666666666 1.037037037037037 0
61.66666666666666 1.296296296296296 0
61.66666666666666 1.555555555555555 0
61.66666666666666 1.814814814814814 0
61.66666666666666 2.074074074074074 0
60.55555555555555 0.3456790123456797 0
60.55555555555555 0.6913580246913582 0
60.55555555555555 1.037037037037037 0
60.55555555555555 1.382716049382716 0
60.55555555555555 1.728395061728396 0
60.55555555555555 2.074074074074074 0
60.55555555555555 2.419753086419753 0
60.55555555555555 2.765432098765432 0
59.44444444444444 0.4320987654320989 0
59.44444444444444 0.8641975308641976 0
59.44444444444444 1.296296296296296 0
59.44444444444444 1.728395061728395 0
59.44444444444444 2.160493827160494 0
59.44444444444444 2.592592592592592 0
59.44444444444444 3.024691358024691 0
59.44444444444444 3.456790123456789 0
58.33333333333333 0.5185185185185188 0
58.33333333333333 1.037037037037037 0
58.33333333333333 1.555555555555555 0
58.33333333333333 2.074074074074074 0
58.33333333333333 2.592592592592593 0
58.33333333333333 3.111111111111111 0
58.33333333333333 3.629629629629629 0
58.33333333333333 4.148148148148147 0
57.22222222222222 0.6049382716049383 0
57.22222222222222 1.209876543209876 0
57.22222222222222 1.814814814814814 0
57.22222222222222 2.419753086419753 0
57.22222222222222 3.024691358024691 0
57.22222222222222 3.629629629629629 0
57.22222222222222 4.234567901234568 0
57.22222222222222 4.839506172839506 0
56.11111111111111 0.6913580246913582 0
56.11111111111111 1.382716049382716 0
56.11111111111111 2.074074074074074 0
56.11111111111111 2.765432098765432 0
56.11111111111111 3.45679012345679 0
56.11111111111111 4.148148148148147 0
56.11111111111111 4.839506172839505 0
56.11111111111111 5.530864197530864 0
56.11111111111111 6.308641975308642 0
56.11111111111111 6.395061728395062 0
56.11111111111111 6.481481481481481 0
56.11111111111111 6.5679012345679 0
56.11111111111111 6.654320987654321 0
56.11111111111111 6.74074074074074 0
56.11111111111111 6.82716049382716 0
56.11111111111111 6.91358024691358 0
57.22222222222223 5.617283950617283 0
57.22222222222223 5.790123456790123 0
57.22222222222223 5.962962962962962 0
57.22222222222223 6.135802469135802 0
57.22222222222223 6.308641975308642 0
57.22222222222223 6.481481481481481 0
57.22222222222223 6.654320987654321 0
57.22222222222223 6.82716049382716 0
58.33333333333334 4.925925925925926 0
58.33333333333334 5.185185185185184 0
58.33333333333334 5.444444444444444 0
58.33333333333334 5.703703703703702 0
58.33333333333334 5.962962962962963 0
58.33333333333334 6.222222222222221 0
58.33333333333334 6.481481481481481 0
58.33333333333334 6.74074074074074 0
59.44444444444445 4.234567901234567 0
59.44444444444445 4.580246913580247 0
59.44444444444445 4.925925925925925 0
59.44444444444445 5.271604938271604 0
59.44444444444445 5.617283950617284 0
59.44444444444445 5.962962962962962 0
59.44444444444445 6.308641975308642 0
59.44444444444445 6.65432098765432 0
60.55555555555556 3.54320987654321 0
60.55555555555556 3.975308641975309 0
60.55555555555556 4.407407407407407 0
60.55555555555556 4.839506172839505 0
60.55555555555556 5.271604938271604 0
60.55555555555556 5.703703703703703 0
60.55555555555556 6.135802469135802 0
60.55555555555556 6.5679012345679 0
61.66666666666667 2.85185185185185 0
61.66666666666667 3.370370370370369 0
61.66666666666667 3.888888888888888 0
61.66666666666667 4.407407407407407 0
61.66666666666667 4.925925925925926 0
61.66666666666667 5.444444444444444 0
61.66666666666667 5.962962962962962 0
61.66666666666667 6.481481481481481 0
62.77777777777779 2.160493827160491 0
62.77777777777779 2.765432098765431 0
62.77777777777779 3.37037037037037 0
62.77777777777779 3.975308641975307 0
62.77777777777779 4.580246913580246 0
62.77777777777779 5.185185185185184 0
62.77777777777779 5.790123456790123 0
62.77777777777779 6.395061728395061 0
63.88888888888889 1.469135802469135 0
63.88888888888889 2.160493827160493 0
63.88888888888889 2.85185185185185 0
63.88888888888889 3.543209876543209 0
63.88888888888889 4.234567901234568 0
63.88888888888889 4.925925925925925 0
63.88888888888889 5.617283950617283 0
63.88888888888889 6.308641975308641 0

CELLS 311 1387
1 0
1 1
1 2
1 3
1 4
2 0 5
2 5 6
2 6 7
2 7 8
2 8 9
2 9 10
2 10 11
2 11 12
2 12 1
2 1 13
2 13 14
2 14 15
2 15 16
2 16 17
2 17 18
2 18 19
2 19 20
2 20 2
2 2 21
2 21 22
2 22 23
2 23 24
2 24 25
2 25 26
2 26 27
2 27 28
2 28 0
2 2 29
2 29 30
2 30 31
2 31 32
2 32 33
2 33 34
2 34 35
2 35 36
2 36 3
2 3 37
2 37 38
2 38 39
2 39 40
2 40 41
2 41 42
2 42 43
2 43 44
2 44 1
2 3 45
2 45 46
2 46 47
2 47 48
2 48 49
2 49 50
2 50 51
2 51 52
2 52 4
2 4 53
2 53 54
2 54 55
2 55 56
2 56 57
2 57 58
2 58 59
2 59 60
2 60 2
3 0 5 61
3 0 61 62
3 0 62 63
3 0 63 64
3 0 64 65
3 0 65 66
3 0 66 67
3 0 67 68
3 0 68 28
4 5 6 69 61
4 61 69 70 62
4 62 70 71 63
4 63 71 72 64
4 64 72 73 65
4 65 73 74 66
4 66 74 75 67
4 67 75 76 68
4 68 76 27 28
4 6 7 77 69
4 69 77 78 70
4 70 78 79 71
4 71 79 80 72
4 72 80 81 73
4 73 81 82 74
4 74 82 83 75
4 75 83 84 76
4 76 84 26 27
4 7 8 85 77
4 77 85 86 78
4 78 86 87 79
4 79 87 88 80
4 80 88 89 81
4 81 89 90 82
4 82 90 91 83
4 83 91 92 84
4 84 92 25 26
4 8 9 93 85
4 85 93 94 86
4 86 94 95 87
4 87 95 96 88
4 88 96 97 89
4 89 97 98 90
4 90 98 99 91
4 91 99 100 92
4 92 100 24 25
4 9 10 101 93
4 93 101 102 94
4 94 102 103 95
4 95 103 104 96
4 96 104 105 97
4 97 105 106 98
4 98 106 107 99
4 99 107 108 100
4 100 108 23 24
4 10 11 109 101
4 101 109 110 102
4 102 110 111 103
4 103 111 112 104
4 104 112 113 105
4 105 113 114 106
4 106 114 115 107
4 107 115 116 108
4 108 116 22 23
4 11 12 117 109
4 109 117 118 110
4 110 118 119 111
4 111 119 120 112
4 112 120 121 113
4 113 121 122 114
4 114 122 123 115
4 115 123 124 116
4 116 124 21 22
4 12 1 13 117
4 117 13 14 118
4 118 14 15 119
4 119 15 16 120
4 120 16 17 121
4 121 17 18 122
4 122 18 19 123
4 123 19 20 124
4 124 20 2 21
3 3 125 37
3 3 126 125
3 3 127 126
3 3 128 127
3 3 129 128
3 3 130 129
3 3 131 130
3 3 132 131
3 3 36 132
4 37 125 133 38
4 125 126 134 133
4 126 127 135 134
4 127 128 136 135
4 128 129 137 136
4 129 130 138 137
4 130 131 139 138
4 131 132 140 139
4 132 36 35 140
4 38 133 141 39
4 133 134 142 141
4 134 135 143 142
4 135 136 144 143
4 136 137 145 144
4 137 138 146 145
4 138 139 147 146
4 139 140 148 147
4 140 35 34 148
4 39 141 149 40
4 141 142 150 149
4 142 143 151 150
4 143 144 152 151
4 144 145 153 152
4 145 146 154 153
4 146 147 155 154
4 147 148 156 155
4 148 34 33 156
4 40 149 157 41
4 149 150 158 157
4 150 151 159 158
4 151 152 160 159
4 152 153 161 160
4 153 154 162 161
4 154 155 163 162
4 155 156 164 163
4 156 33 32 164
4 41 157 165 42
4 157 158 166 165
4 158 159 167 166
4 159 160 168 167
4 160 161 169 168
4 161 162 170 169
4 162 163 171 170
4 163 164 172 171
4 164 32 31 172
4 42 165 173 43
4 165 166 174 173
4 166 167 175 174
4 167 168 176 175
4 168 169 177 176
4 169 170 178 177
4 170 171 179 178
4 171 172 180 179
4 172 31 30 180
4 43 173 181 44
4 173 174 182 181
4 174 175 183 182
4 175 176 184 183
4 176 177 185 184
4 177 178 186 185
4 178 179 187 186
4 179 180 188 187
4 180 30 29 188
4 44 181 13 1
4 181 182 14 13
4 182 183 15 14
4 183 184 16 15
4 184 185 17 16
4 185 186 18 17
4 186 187 19 18
4 187 188 20 19
4 188 29 2 20
3 2 29 189
3 2 189 190
3 2 190 191
3 2 191 192
3 2 192 193
3 2 193 194
3 2 194 195
3 2 195 196
3 2 196 60
4 29 30 197 189
4 189 197 198 190
4 190 198 199 191
4 191 199 200 192
4 192 200 201 193
4 193 201 202 194
4 194 202 203 195
4 195 203 204 196
4 196 204 59 60
4 30 31 205 197
4 197 205 206 198
4 198 206 207 199
4 199 207 208 200
4 200 208 209 201
4 201 209 210 202
4 202 210 211 203
4 203 211 212 204
4 204 212 58 59
4 31 32 213 205
4 205 213 214 206
4 206 214 215 207
4 207 215 216 208
4 208 216 217 209
4 209 217 218 210
4 210 218 219 211
4 211 219 220 212
4 212 220 57 58
4 32 33 221 213
4 213 221 222 214
4 214 222 223 215
4 215 223 224 216
4 216 224 225 217
4 217 225 226 218
4 218 226 227 219
4 219 227 228 220
4 220 228 56 57
4 33 34 229 221
4 221 229 230 222
4 222 230 231 223
4 223 231 232 224
4 224 232 233 225
4 225 233 234 226
4 226 234 235 227
4 227 235 236 228
4 228 236 55 56
4 34 35 237 229
4 229 237 238 230
4 230 238 239 231
4 231 239 240 232
4 232 240 241 233
4 233 241 242 234
4 234 242 243 235
4 235 243 244 236
4 236 244 54 55
4 35 36 245 237
4 237 245 246 238
4 238 246 247 239
4 239 247 248 240
4 240 248 249 241
4 241 249 250 242
4 242 250 251 243
4 243 251 252 244
4 244 252 53 54
4 36 3 45 245
4 245 45 46 246
4 246 46 47 247
4 247 47 48 248
4 248 48 49 249
4 249 49 50 250
4 250 50 51 251
4 251 51 52 252
4 252 52 4 53

CELL_TYPES 311
1
1
1
1
1
3
3
3
3
3
3
3
3
3
3
3
3
3
3
3
3
3
3
3
3
3
3
3
3
3
3
3
3
3
3
3
3
3
3
3
3
3
3
3
3
3
3
3
3
3
3
3
3
3
3
3
3
3
3
3
3
3
3
3
3
3
3
3
5
5
5
5
5
5
5
5
5
9
9
9
9
9
9
9
9
9
9
9
9
9
9
9
9
9
9
9
9
9
9
9
9
9
9
9
9
9
9
9
9
9
9
9
9
9
9
9
9
9
9
9
9
9
9
9
9
9
9
9
9
9
9
9
9
9
9
9
9
9
9
9
9
9
9
9
9
9
9
9
9
5
5
5
5
5
5
5
5
5
9
9
9
9
9
9
9
9
9
9
9
9
9
9
9
9
9
9
9
9
9
9
9
9
9
9
9
9
9
9
9
9
9
9
9
9
9
9
9
9
9
9
9
9
9
9
9
9
9
9
9
9
9
9
9
9
9
9
9
9
9
9
9
9
9
9
9
9
9
9
9
9
5
5
5
5
5
5
5
5
5
9
9
9
9
9
9
9
9
9
9
9
9
9
9
9
9
9
9
9
9
9
9
9
9
9
9
9
9
9
9
9
9
9
9
9
9
9
9
9
9
9
9
9
9
9
9
9
9
9
9
9
9
9
9
9
9
9
9
9
9
9
9
9
9
9
9
9
9
9
9
9
9

CELL_DATA 311
SCALARS CellEntityIds int 1
LOOKUP_TABLE default
-1
-1
-1
-1
-1
1
1
1
1
1
1
1
1
1
2
2
2
2
2
2
2
2
2
3
3
3
3
3
3
3
3
3
4
4
4
4
4
4
4
4
4
5
5
5
5
5
5
5
5
5
6
6
6
6
6
6
6
6
6
7
7
7
7
7
7
7
7
7
8
8
8
8
8
8
8
8
8
8
8
8
8
8
8
8
8
8
8
8
8
8
8
8
8
8
8
8
8
8
8
8
8
8
8
8
8
8
8
8
8
8
8
8
8
8
8
8
8
8
8
8
8
8
8
8
8
8
8
8
8
8
8
8
8
8
8
8
8
8
8
8
8
8
8
8
8
8
8
8
8
9
9
9
9
9
9
9
9
9
9
9
9
9
9
9
9
9
9
9
9
9
9
9
9
9
9
9
9
9
9
9
9
9
9
9
9
9
9
9
9
9
9
9
9
9
9
9
9
9
9
9
9
9
9
9
9
9
9
9
9
9
9
9
9
9
9
9
9
9
9
9
9
9
9
9
9
9
9
9
9
9
10
10
10
10
10
10
10
10
10
10
10
10
10
10
10
10
10
10
10
10
10
10
10
10
10
10
10
10
10
10
10
10
10
10
10
10
10
10
10
10
10
10
10
10
10
10
10
10
10
10
10
10
10
10
10
10
10
10
10
10
10
10
10
10
10
10
10
10
10
10
10
10
10
10
10
10
10
10
10
10
10
