# vtk DataFile Version 2.0
shape2mesh, Created by Gmsh 4.13.1
ASCII
DATASET UNSTRUCTURED_GRID
POINTS 301 double
15 -60 0
17 -60 10
25 -60 0
27 -60 10
20 -52 0
22 -52 10
15.33333333333333 -60 1.666666666666672
15.66666666666667 -60 3.333333333333343
16 -60 5.000000000000015
16.33333333333334 -60 6.666666666666687
16.66666666666667 -60 8.333333333333357
25.33333333333334 -60 1.666666666666672
25.66666666666667 -60 3.333333333333343
26 -60 5.000000000000015
26.33333333333334 -60 6.666666666666687
26.66666666666667 -60 8.333333333333357
16.66666666666667 -60 0
18.33333333333333 -60 0
20 -60 0
21.66666666666667 -60 0
23.33333333333334 -60 0
18.66666666666667 -60 10
20.33333333333333 -60 10
22 -60 10
23.66666666666667 -60 10
25.33333333333334 -60 10
20.33333333333334 -52 1.666666666666672
20.66666666666667 -52 3.333333333333343
21 -52 5.000000000000015
21.33333333333334 -52 6.666666666666687
21.66666666666667 -52 8.333333333333357
24.16666666666667 -58.66666666666666 0
23.33333333333334 -57.33333333333334 0
22.5 -56 0
21.66666666666667 -54.66666666666667 0
20.83333333333334 -53.33333333333334 0
26.16666666666667 -58.66666666666666 10
25.33333333333334 -57.33333333333334 10
24.5 -56 10
23.66666666666667 -54.66666666666667 10
22.83333333333334 -53.33333333333334 10
19.16666666666667 -53.33333333333334 0
18.33333333333334 -54.66666666666666 0
17.5 -56 0
16.66666666666667 -57.33333333333333 0
15.83333333333334 -58.66666666666666 0
21.16666666666667 -53.33333333333334 10
20.33333333333334 -54.66666666666666 10
19.5 -56 10
18.66666666666667 -57.33333333333333 10
17.83333333333334 -58.66666666666666 10
17 -60 1.666666666666667
18.66666666666667 -60 1.666666666666667
20.33333333333333 -60 1.666666666666667
22 -60 1.666666666666666
23.66666666666666 -60 1.666666666666667
17.33333333333333 -60 3.333333333333333
19 -60 3.333333333333333
20.66666666666666 -60 3.333333333333333
22.33333333333334 -60 3.333333333333333
24 -60 3.333333333333333
17.66666666666667 -60 4.999999999999999
19.33333333333334 -60 5.000000000000002
21 -60 4.999999999999999
22.66666666666667 -60 5.000000000000001
24.33333333333333 -60 5.000000000000001
18 -60 6.666666666666666
19.66666666666667 -60 6.666666666666667
21.33333333333334 -60 6.666666666666667
23 -60 6.666666666666665
24.66666666666666 -60 6.666666666666667
18.33333333333333 -60 8.333333333333332
20 -60 8.333333333333332
21.66666666666666 -60 8.333333333333332
23.33333333333334 -60 8.333333333333332
25 -60 8.333333333333332
24.5 -58.66666666666666 1.666666666666667
23.66666666666667 -57.33333333333334 1.666666666666667
22.83333333333334 -56 1.666666666666667
22 -54.66666666666667 1.666666666666667
21.16666666666667 -53.33333333333334 1.666666666666667
24.83333333333334 -58.66666666666666 3.333333333333334
24 -57.33333333333334 3.333333333333333
23.16666666666667 -56 3.333333333333333
22.33333333333334 -54.66666666666667 3.333333333333334
21.5 -53.33333333333334 3.333333333333334
25.16666666666667 -58.66666666666666 5.000000000000001
24.33333333333334 -57.33333333333334 5.000000000000001
23.5 -56 5.000000000000001
22.66666666666667 -54.66666666666667 5.000000000000001
21.83333333333334 -53.33333333333334 5.000000000000001
25.5 -58.66666666666666 6.666666666666668
24.66666666666667 -57.33333333333334 6.666666666666666
23.83333333333334 -56 6.666666666666666
23 -54.66666666666667 6.666666666666668
22.16666666666667 -53.33333333333334 6.666666666666668
25.83333333333334 -58.66666666666666 8.333333333333334
25 -57.33333333333334 8.333333333333336
24.16666666666667 -56 8.333333333333336
23.33333333333334 -54.66666666666667 8.333333333333332
22.5 -53.33333333333334 8.333333333333336
19.5 -53.33333333333334 1.666666666666667
18.66666666666667 -54.66666666666666 1.666666666666667
17.83333333333334 -56 1.666666666666667
17 -57.33333333333333 1.666666666666667
16.16666666666667 -58.66666666666666 1.666666666666667
19.83333333333334 -53.33333333333334 3.333333333333334
19 -54.66666666666666 3.333333333333333
18.16666666666667 -56 3.333333333333333
17.33333333333334 -57.33333333333333 3.333333333333334
16.5 -58.66666666666666 3.333333333333334
20.16666666666667 -53.33333333333334 5.000000000000001
19.33333333333334 -54.66666666666666 5.000000000000001
18.5 -56 5.000000000000001
17.66666666666667 -57.33333333333333 5.000000000000001
16.83333333333334 -58.66666666666666 5.000000000000001
20.5 -53.33333333333334 6.666666666666668
19.66666666666667 -54.66666666666666 6.666666666666666
18.83333333333334 -56 6.666666666666666
18 -57.33333333333333 6.666666666666668
17.16666666666667 -58.66666666666666 6.666666666666668
20.83333333333334 -53.33333333333334 8.333333333333334
20 -54.66666666666666 8.333333333333336
19.16666666666667 -56 8.333333333333336
18.33333333333334 -57.33333333333333 8.333333333333332
17.5 -58.66666666666666 8.333333333333336
16.52777777777778 -59.77777777777778 0
16.38888888888889 -59.55555555555556 0
16.25 -59.33333333333333 0
16.11111111111111 -59.11111111111111 0
15.97222222222222 -58.88888888888889 0
18.05555555555556 -59.55555555555556 0
17.77777777777778 -59.11111111111111 0
17.5 -58.66666666666666 0
17.22222222222222 -58.22222222222222 0
16.94444444444445 -57.77777777777778 0
19.58333333333333 -59.33333333333334 0
19.16666666666667 -58.66666666666666 0
18.75 -58 0
18.33333333333334 -57.33333333333333 0
17.91666666666667 -56.66666666666666 0
21.11111111111111 -59.11111111111111 0
20.55555555555556 -58.22222222222222 0
20 -57.33333333333334 0
19.44444444444445 -56.44444444444444 0
18.88888888888889 -55.55555555555556 0
22.63888888888889 -58.88888888888889 0
21.94444444444444 -57.77777777777778 0
21.25 -56.66666666666666 0
20.55555555555556 -55.55555555555556 0
19.86111111111111 -54.44444444444444 0
18.52777777777778 -59.77777777777778 10
18.38888888888889 -59.55555555555556 10
18.25 -59.33333333333333 10
18.11111111111111 -59.11111111111111 10
17.97222222222222 -58.88888888888889 10
20.05555555555556 -59.55555555555556 10
19.77777777777778 -59.11111111111111 10
19.5 -58.66666666666666 10
19.22222222222222 -58.22222222222222 10
18.94444444444445 -57.77777777777778 10
21.58333333333333 -59.33333333333334 10
21.16666666666667 -58.66666666666666 10
20.75 -58 10
20.33333333333334 -57.33333333333333 10
19.91666666666667 -56.66666666666666 10
23.11111111111111 -59.11111111111111 10
22.55555555555556 -58.22222222222222 10
22 -57.33333333333334 10
21.44444444444445 -56.44444444444444 10
20.88888888888889 -55.55555555555556 10
24.63888888888889 -58.88888888888889 10
23.94444444444444 -57.77777777777778 10
23.25 -56.66666666666666 10
22.55555555555556 -55.55555555555556 10
21.86111111111111 -54.44444444444444 10
16.86111111111111 -59.77777777777774 1.666666666666667
17.19444444444444 -59.77777777777773 3.333333333333333
17.52777777777778 -59.77777777777774 4.999999999999996
17.86111111111111 -59.77777777777774 6.666666666666667
18.19444444444445 -59.77777777777779 8.33333333333333
16.72222222222222 -59.55555555555553 1.666666666666666
17.05555555555555 -59.55555555555555 3.333333333333331
17.38888888888889 -59.55555555555559 4.999999999999995
17.72222222222222 -59.55555555555557 6.666666666666663
18.05555555555555 -59.55555555555558 8.333333333333329
16.58333333333334 -59.33333333333333 1.666666666666666
16.91666666666666 -59.33333333333332 3.333333333333331
17.25000000000001 -59.33333333333331 4.999999999999998
17.58333333333333 -59.33333333333332 6.666666666666662
17.91666666666666 -59.33333333333331 8.333333333333329
16.44444444444444 -59.11111111111113 1.666666666666666
16.77777777777778 -59.11111111111109 3.333333333333332
17.11111111111111 -59.11111111111112 4.999999999999999
17.44444444444445 -59.11111111111109 6.666666666666664
17.77777777777778 -59.1111111111111 8.333333333333329
16.30555555555555 -58.88888888888889 1.666666666666666
16.63888888888889 -58.88888888888885 3.333333333333331
16.97222222222223 -58.88888888888887 5
17.30555555555555 -58.88888888888887 6.666666666666663
17.6388888888889 -58.88888888888889 8.333333333333332
18.3888888888889 -59.55555555555554 1.666666666666665
18.72222222222222 -59.55555555555555 3.333333333333331
19.05555555555557 -59.55555555555558 4.999999999999998
19.38888888888888 -59.55555555555551 6.666666666666663
19.72222222222221 -59.55555555555558 8.333333333333325
18.1111111111111 -59.1111111111111 1.666666666666665
18.44444444444444 -59.1111111111111 3.33333333333333
18.77777777777778 -59.11111111111111 4.999999999999996
19.11111111111111 -59.11111111111109 6.666666666666661
19.44444444444444 -59.11111111111109 8.333333333333327
17.83333333333332 -58.66666666666668 1.666666666666666
18.16666666666667 -58.66666666666669 3.33333333333333
18.5 -58.66666666666669 4.999999999999995
18.83333333333334 -58.66666666666669 6.666666666666661
19.16666666666667 -58.66666666666669 8.333333333333325
17.55555555555556 -58.22222222222223 1.666666666666665
17.88888888888888 -58.22222222222226 3.333333333333329
18.22222222222221 -58.22222222222226 4.999999999999995
18.55555555555555 -58.22222222222226 6.666666666666659
18.88888888888889 -58.22222222222226 8.333333333333321
17.27777777777779 -57.77777777777776 1.666666666666666
17.61111111111112 -57.77777777777781 3.333333333333332
17.94444444444445 -57.77777777777779 4.999999999999996
18.27777777777778 -57.77777777777776 6.666666666666664
18.61111111111111 -57.7777777777778 8.333333333333325
19.91666666666667 -59.33333333333334 1.666666666666665
20.24999999999999 -59.3333333333333 3.333333333333329
20.58333333333334 -59.33333333333332 4.999999999999993
20.91666666666665 -59.33333333333331 6.666666666666659
21.25 -59.33333333333331 8.333333333333321
19.5 -58.66666666666665 1.666666666666665
19.83333333333333 -58.66666666666668 3.333333333333328
20.16666666666667 -58.66666666666669 4.99999999999999
20.49999999999999 -58.66666666666668 6.666666666666656
20.83333333333334 -58.66666666666667 8.33333333333332
19.08333333333334 -58.00000000000001 1.666666666666664
19.41666666666666 -58.00000000000001 3.333333333333328
19.75 -57.99999999999999 4.999999999999991
20.08333333333335 -57.99999999999999 6.666666666666656
20.41666666666666 -58 8.333333333333321
18.66666666666667 -57.33333333333331 1.666666666666664
19.00000000000001 -57.33333333333336 3.333333333333328
19.33333333333334 -57.33333333333331 4.999999999999995
19.66666666666667 -57.33333333333332 6.666666666666655
20 -57.33333333333331 8.333333333333321
18.25 -56.66666666666669 1.666666666666663
18.58333333333334 -56.66666666666668 3.333333333333328
18.91666666666667 -56.66666666666667 4.999999999999995
19.25000000000001 -56.66666666666667 6.666666666666655
19.58333333333333 -56.66666666666667 8.333333333333325
21.44444444444444 -59.11111111111112 1.666666666666664
21.77777777777779 -59.11111111111109 3.333333333333328
22.11111111111111 -59.11111111111111 4.999999999999991
22.44444444444445 -59.11111111111108 6.666666666666655
22.77777777777777 -59.11111111111108 8.333333333333318
20.88888888888889 -58.22222222222222 1.666666666666664
21.22222222222221 -58.22222222222224 3.333333333333327
21.55555555555555 -58.22222222222221 4.99999999999999
21.88888888888889 -58.22222222222221 6.666666666666654
22.22222222222221 -58.22222222222222 8.333333333333321
20.33333333333334 -57.33333333333333 1.666666666666664
20.66666666666667 -57.33333333333333 3.333333333333327
21 -57.33333333333332 4.999999999999991
21.33333333333334 -57.33333333333334 6.666666666666654
21.66666666666667 -57.33333333333333 8.333333333333321
19.77777777777777 -56.44444444444444 1.666666666666663
20.11111111111111 -56.44444444444441 3.333333333333328
20.44444444444444 -56.44444444444444 4.999999999999991
20.77777777777777 -56.44444444444442 6.666666666666655
21.11111111111111 -56.44444444444441 8.333333333333318
19.22222222222222 -55.55555555555556 1.666666666666663
19.55555555555555 -55.55555555555555 3.333333333333326
19.8888888888889 -55.55555555555556 4.999999999999992
20.22222222222222 -55.55555555555558 6.666666666666652
20.55555555555554 -55.55555555555557 8.333333333333321
22.97222222222222 -58.88888888888888 1.666666666666663
23.30555555555555 -58.88888888888889 3.333333333333326
23.63888888888888 -58.88888888888891 4.99999999999999
23.97222222222222 -58.88888888888891 6.666666666666653
24.30555555555556 -58.88888888888892 8.333333333333316
22.27777777777777 -57.77777777777776 1.666666666666663
22.61111111111111 -57.77777777777779 3.333333333333325
22.94444444444444 -57.77777777777776 4.999999999999988
23.27777777777778 -57.77777777777775 6.666666666666649
23.61111111111111 -57.77777777777778 8.333333333333314
21.58333333333333 -56.66666666666666 1.666666666666663
21.91666666666667 -56.66666666666664 3.333333333333325
22.24999999999999 -56.66666666666666 4.999999999999987
22.58333333333334 -56.66666666666666 6.666666666666651
22.91666666666667 -56.66666666666666 8.333333333333314
20.8888888888889 -55.55555555555559 1.666666666666662
21.22222222222222 -55.55555555555556 3.333333333333326
21.55555555555556 -55.55555555555554 4.99999999999999
21.88888888888888 -55.55555555555558 6.666666666666653
22.22222222222222 -55.55555555555557 8.333333333333314
20.19444444444444 -54.44444444444446 1.666666666666663
20.52777777777778 -54.44444444444446 3.333333333333326
20.86111111111111 -54.44444444444446 4.999999999999988
21.19444444444445 -54.44444444444441 6.666666666666653
21.52777777777777 -54.44444444444442 8.333333333333314

CELLS 456 2934
1 0
1 1
1 2
1 3
1 4
1 5
2 0 6
2 6 7
2 7 8
2 8 9
2 9 10
2 10 1
2 2 11
2 11 12
2 12 13
2 13 14
2 14 15
2 15 3
2 0 16
2 16 17
2 17 18
2 18 19
2 19 20
2 20 2
2 1 21
2 21 22
2 22 23
2 23 24
2 24 25
2 25 3
2 4 26
2 26 27
2 27 28
2 28 29
2 29 30
2 30 5
2 2 31
2 31 32
2 32 33
2 33 34
2 34 35
2 35 4
2 3 36
2 36 37
2 37 38
2 38 39
2 39 40
2 40 5
2 4 41
2 41 42
2 42 43
2 43 44
2 44 45
2 45 0
2 5 46
2 46 47
2 47 48
2 48 49
2 49 50
2 50 1
4 0 16 51 6
4 16 17 52 51
4 17 18 53 52
4 18 19 54 53
4 19 20 55 54
4 20 2 11 55
4 6 51 56 7
4 51 52 57 56
4 52 53 58 57
4 53 54 59 58
4 54 55 60 59
4 55 11 12 60
4 7 56 61 8
4 56 57 62 61
4 57 58 63 62
4 58 59 64 63
4 59 60 65 64
4 60 12 13 65
4 8 61 66 9
4 61 62 67 66
4 62 63 68 67
4 63 64 69 68
4 64 65 70 69
4 65 13 14 70
4 9 66 71 10
4 66 67 72 71
4 67 68 73 72
4 68 69 74 73
4 69 70 75 74
4 70 14 15 75
4 10 71 21 1
4 71 72 22 21
4 72 73 23 22
4 73 74 24 23
4 74 75 25 24
4 75 15 3 25
4 2 31 76 11
4 31 32 77 76
4 32 33 78 77
4 33 34 79 78
4 34 35 80 79
4 35 4 26 80
4 11 76 81 12
4 76 77 82 81
4 77 78 83 82
4 78 79 84 83
4 79 80 85 84
4 80 26 27 85
4 12 81 86 13
4 81 82 87 86
4 82 83 88 87
4 83 84 89 88
4 84 85 90 89
4 85 27 28 90
4 13 86 91 14
4 86 87 92 91
4 87 88 93 92
4 88 89 94 93
4 89 90 95 94
4 90 28 29 95
4 14 91 96 15
4 91 92 97 96
4 92 93 98 97
4 93 94 99 98
4 94 95 100 99
4 95 29 30 100
4 15 96 36 3
4 96 97 37 36
4 97 98 38 37
4 98 99 39 38
4 99 100 40 39
4 100 30 5 40
4 4 41 101 26
4 41 42 102 101
4 42 43 103 102
4 43 44 104 103
4 44 45 105 104
4 45 0 6 105
4 26 101 106 27
4 101 102 107 106
4 102 103 108 107
4 103 104 109 108
4 104 105 110 109
4 105 6 7 110
4 27 106 111 28
4 106 107 112 111
4 107 108 113 112
4 108 109 114 113
4 109 110 115 114
4 110 7 8 115
4 28 111 116 29
4 111 112 117 116
4 112 113 118 117
4 113 114 119 118
4 114 115 120 119
4 115 8 9 120
4 29 116 121 30
4 116 117 122 121
4 117 118 123 122
4 118 119 124 123
4 119 120 125 124
4 120 9 10 125
4 30 121 46 5
4 121 122 47 46
4 122 123 48 47
4 123 124 49 48
4 124 125 50 49
4 125 10 1 50
3 0 126 16
3 0 127 126
3 0 128 127
3 0 129 128
3 0 130 129
3 0 45 130
4 16 126 131 17
4 126 127 132 131
4 127 128 133 132
4 128 129 134 133
4 129 130 135 134
4 130 45 44 135
4 17 131 136 18
4 131 132 137 136
4 132 133 138 137
4 133 134 139 138
4 134 135 140 139
4 135 44 43 140
4 18 136 141 19
4 136 137 142 141
4 137 138 143 142
4 138 139 144 143
4 139 140 145 144
4 140 43 42 145
4 19 141 146 20
4 141 142 147 146
4 142 143 148 147
4 143 144 149 148
4 144 145 150 149
4 145 42 41 150
4 20 146 31 2
4 146 147 32 31
4 147 148 33 32
4 148 149 34 33
4 149 150 35 34
4 150 41 4 35
3 1 21 151
3 1 151 152
3 1 152 153
3 1 153 154
3 1 154 155
3 1 155 50
4 21 22 156 151
4 151 156 157 152
4 152 157 158 153
4 153 158 159 154
4 154 159 160 155
4 155 160 49 50
4 22 23 161 156
4 156 161 162 157
4 157 162 163 158
4 158 163 164 159
4 159 164 165 160
4 160 165 48 49
4 23 24 166 161
4 161 166 167 162
4 162 167 168 163
4 163 168 169 164
4 164 169 170 165
4 165 170 47 48
4 24 25 171 166
4 166 171 172 167
4 167 172 173 168
4 168 173 174 169
4 169 174 175 170
4 170 175 46 47
4 25 3 36 171
4 171 36 37 172
4 172 37 38 173
4 173 38 39 174
4 174 39 40 175
4 175 40 5 46
8 16 17 131 126 51 52 201 176
8 51 52 201 176 56 57 202 177
8 56 57 202 177 61 62 203 178
8 61 62 203 178 66 67 204 179
8 66 67 204 179 71 72 205 180
8 71 72 205 180 21 22 156 151
8 126 131 132 127 176 201 206 181
8 176 201 206 181 177 202 207 182
8 177 202 207 182 178 203 208 183
8 178 203 208 183 179 204 209 184
8 179 204 209 184 180 205 210 185
8 180 205 210 185 151 156 157 152
8 127 132 133 128 181 206 211 186
8 181 206 211 186 182 207 212 187
8 182 207 212 187 183 208 213 188
8 183 208 213 188 184 209 214 189
8 184 209 214 189 185 210 215 190
8 185 210 215 190 152 157 158 153
8 128 133 134 129 186 211 216 191
8 186 211 216 191 187 212 217 192
8 187 212 217 192 188 213 218 193
8 188 213 218 193 189 214 219 194
8 189 214 219 194 190 215 220 195
8 190 215 220 195 153 158 159 154
8 129 134 135 130 191 216 221 196
8 191 216 221 196 192 217 222 197
8 192 217 222 197 193 218 223 198
8 193 218 223 198 194 219 224 199
8 194 219 224 199 195 220 225 200
8 195 220 225 200 154 159 160 155
8 130 135 44 45 196 221 104 105
8 196 221 104 105 197 222 109 110
8 197 222 109 110 198 223 114 115
8 198 223 114 115 199 224 119 120
8 199 224 119 120 200 225 124 125
8 200 225 124 125 155 160 49 50
8 17 18 136 131 52 53 226 201
8 52 53 226 201 57 58 227 202
8 57 58 227 202 62 63 228 203
8 62 63 228 203 67 68 229 204
8 67 68 229 204 72 73 230 205
8 72 73 230 205 22 23 161 156
8 131 136 137 132 201 226 231 206
8 201 226 231 206 202 227 232 207
8 202 227 232 207 203 228 233 208
8 203 228 233 208 204 229 234 209
8 204 229 234 209 205 230 235 210
8 205 230 235 210 156 161 162 157
8 132 137 138 133 206 231 236 211
8 206 231 236 211 207 232 237 212
8 207 232 237 212 208 233 238 213
8 208 233 238 213 209 234 239 214
8 209 234 239 214 210 235 240 215
8 210 235 240 215 157 162 163 158
8 133 138 139 134 211 236 241 216
8 211 236 241 216 212 237 242 217
8 212 237 242 217 213 238 243 218
8 213 238 243 218 214 239 244 219
8 214 239 244 219 215 240 245 220
8 215 240 245 220 158 163 164 159
8 134 139 140 135 216 241 246 221
8 216 241 246 221 217 242 247 222
8 217 242 247 222 218 243 248 223
8 218 243 248 223 219 244 249 224
8 219 244 249 224 220 245 250 225
8 220 245 250 225 159 164 165 160
8 135 140 43 44 221 246 103 104
8 221 246 103 104 222 247 108 109
8 222 247 108 109 223 248 113 114
8 223 248 113 114 224 249 118 119
8 224 249 118 119 225 250 123 124
8 225 250 123 124 160 165 48 49
8 18 19 141 136 53 54 251 226
8 53 54 251 226 58 59 252 227
8 58 59 252 227 63 64 253 228
8 63 64 253 228 68 69 254 229
8 68 69 254 229 73 74 255 230
8 73 74 255 230 23 24 166 161
8 136 141 142 137 226 251 256 231
8 226 251 256 231 227 252 257 232
8 227 252 257 232 228 253 258 233
8 228 253 258 233 229 254 259 234
8 229 254 259 234 230 255 260 235
8 230 255 260 235 161 166 167 162
8 137 142 143 138 231 256 261 236
8 231 256 261 236 232 257 262 237
8 232 257 262 237 233 258 263 238
8 233 258 263 238 234 259 264 239
8 234 259 264 239 235 260 265 240
8 235 260 265 240 162 167 168 163
8 138 143 144 139 236 261 266 241
8 236 261 266 241 237 262 267 242
8 237 262 267 242 238 263 268 243
8 238 263 268 243 239 264 269 244
8 239 264 269 244 240 265 270 245
8 240 265 270 245 163 168 169 164
8 139 144 145 140 241 266 271 246
8 241 266 271 246 242 267 272 247
8 242 267 272 247 243 268 273 248
8 243 268 273 248 244 269 274 249
8 244 269 274 249 245 270 275 250
8 245 270 275 250 164 169 170 165
8 140 145 42 43 246 271 102 103
8 246 271 102 103 247 272 107 108
8 247 272 107 108 248 273 112 113
8 248 273 112 113 249 274 117 118
8 249 274 117 118 250 275 122 123
8 250 275 122 123 165 170 47 48
8 19 20 146 141 54 55 276 251
8 54 55 276 251 59 60 277 252
8 59 60 277 252 64 65 278 253
8 64 65 278 253 69 70 279 254
8 69 70 279 254 74 75 280 255
8 74 75 280 255 24 25 171 166
8 141 146 147 142 251 276 281 256
8 251 276 281 256 252 277 282 257
8 252 277 282 257 253 278 283 258
8 253 278 283 258 254 279 284 259
8 254 279 284 259 255 280 285 260
8 255 280 285 260 166 171 172 167
8 142 147 148 143 256 281 286 261
8 256 281 286 261 257 282 287 262
8 257 282 287 262 258 283 288 263
8 258 283 288 263 259 284 289 264
8 259 284 289 264 260 285 290 265
8 260 285 290 265 167 172 173 168
8 143 148 149 144 261 286 291 266
8 261 286 291 266 262 287 292 267
8 262 287 292 267 263 288 293 268
8 263 288 293 268 264 289 294 269
8 264 289 294 269 265 290 295 270
8 265 290 295 270 168 173 174 169
8 144 149 150 145 266 291 296 271
8 266 291 296 271 267 292 297 272
8 267 292 297 272 268 293 298 273
8 268 293 298 273 269 294 299 274
8 269 294 299 274 270 295 300 275
8 270 295 300 275 169 174 175 170
8 145 150 41 42 271 296 101 102
8 271 296 101 102 272 297 106 107
8 272 297 106 107 273 298 111 112
8 273 298 111 112 274 299 116 117
8 274 299 116 117 275 300 121 122
8 275 300 121 122 170 175 46 47
8 20 2 31 146 55 11 76 276
8 55 11 76 276 60 12 81 277
8 60 12 81 277 65 13 86 278
8 65 13 86 278 70 14 91 279
8 70 14 91 279 75 15 96 280
8 75 15 96 280 25 3 36 171
8 146 31 32 147 276 76 77 281
8 276 76 77 281 277 81 82 282
8 277 81 82 282 278 86 87 283
8 278 86 87 283 279 91 92 284
8 279 91 92 284 280 96 97 285
8 280 96 97 285 171 36 37 172
8 147 32 33 148 281 77 78 286
8 281 77 78 286 282 82 83 287
8 282 82 83 287 283 87 88 288
8 283 87 88 288 284 92 93 289
8 284 92 93 289 285 97 98 290
8 285 97 98 290 172 37 38 173
8 148 33 34 149 286 78 79 291
8 286 78 79 291 287 83 84 292
8 287 83 84 292 288 88 89 293
8 288 88 89 293 289 93 94 294
8 289 93 94 294 290 98 99 295
8 290 98 99 295 173 38 39 174
8 149 34 35 150 291 79 80 296
8 291 79 80 296 292 84 85 297
8 292 84 85 297 293 89 90 298
8 293 89 90 298 294 94 95 299
8 294 94 95 299 295 99 100 300
8 295 99 100 300 174 39 40 175
8 150 35 4 41 296 80 26 101
8 296 80 26 101 297 85 27 106
8 297 85 27 106 298 90 28 111
8 298 90 28 111 299 95 29 116
8 299 95 29 116 300 100 30 121
8 300 100 30 121 175 40 5 46
6 0 126 16 6 176 51
6 6 176 51 7 177 56
6 7 177 56 8 178 61
6 8 178 61 9 179 66
6 9 179 66 10 180 71
6 10 180 71 1 151 21
6 0 127 126 6 181 176
6 6 181 176 7 182 177
6 7 182 177 8 183 178
6 8 183 178 9 184 179
6 9 184 179 10 185 180
6 10 185 180 1 152 151
6 0 128 127 6 186 181
6 6 186 181 7 187 182
6 7 187 182 8 188 183
6 8 188 183 9 189 184
6 9 189 184 10 190 185
6 10 190 185 1 153 152
6 0 129 128 6 191 186
6 6 191 186 7 192 187
6 7 192 187 8 193 188
6 8 193 188 9 194 189
6 9 194 189 10 195 190
6 10 195 190 1 154 153
6 0 130 129 6 196 191
6 6 196 191 7 197 192
6 7 197 192 8 198 193
6 8 198 193 9 199 194
6 9 199 194 10 200 195
6 10 200 195 1 155 154
6 0 45 130 6 105 196
6 6 105 196 7 110 197
6 7 110 197 8 115 198
6 8 115 198 9 120 199
6 9 120 199 10 125 200
6 10 125 200 1 50 155

CELL_TYPES 456
1
1
1
1
1
1
3
3
3
3
3
3
3
3
3
3
3
3
3
3
3
3
3
3
3
3
3
3
3
3
3
3
3
3
3
3
3
3
3
3
3
3
3
3
3
3
3
3
3
3
3
3
3
3
3
3
3
3
3
3
9
9
9
9
9
9
9
9
9
9
9
9
9
9
9
9
9
9
9
9
9
9
9
9
9
9
9
9
9
9
9
9
9
9
9
9
9
9
9
9
9
9
9
9
9
9
9
9
9
9
9
9
9
9
9
9
9
9
9
9
9
9
9
9
9
9
9
9
9
9
9
9
9
9
9
9
9
9
9
9
9
9
9
9
9
9
9
9
9
9
9
9
9
9
9
9
9
9
9
9
9
9
9
9
9
9
9
9
5
5
5
5
5
5
9
9
9
9
9
9
9
9
9
9
9
9
9
9
9
9
9
9
9
9
9
9
9
9
9
9
9
9
9
9
5
5
5
5
5
5
9
9
9
9
9
9
9
9
9
9
9
9
9
9
9
9
9
9
9
9
9
9
9
9
9
9
9
9
9
9
12
12
12
12
12
12
12
12
12
12
12
12
12
12
12
12
12
12
12
12
12
12
12
12
12
12
12
12
12
12
12
12
12
12
12
12
12
12
12
12
12
12
12
12
12
12
12
12
12
12
12
12
12
12
12
12
12
12
12
12
12
12
12
12
12
12
12
12
12
12
12
12
12
12
12
12
12
12
12
12
12
12
12
12
12
12
12
12
12
12
12
12
12
12
12
12
12
12
12
12
12
12
12
12
12
12
12
12
12
12
12
12
12
12
12
12
12
12
12
12
12
12
12
12
12
12
12
12
12
12
12
12
12
12
12
12
12
12
12
12
12
12
12
12
12
12
12
12
12
12
12
12
12
12
12
12
12
12
12
12
12
12
12
12
12
12
12
12
12
12
12
12
12
12
12
12
12
12
12
12
13
13
13
13
13
13
13
13
13
13
13
13
13
13
13
13
13
13
13
13
13
13
13
13
13
13
13
13
13
13
13
13
13
13
13
13

CELL_DATA 456
SCALARS CellEntityIds int 1
LOOKUP_TABLE default
-1
-1
-1
-1
-1
-1
1
1
1
1
1
1
2
2
2
2
2
2
3
3
3
3
3
3
4
4
4
4
4
4
5
5
5
5
5
5
6
6
6
6
6
6
7
7
7
7
7
7
8
8
8
8
8
8
9
9
9
9
9
9
10
10
10
10
10
10
10
10
10
10
10
10
10
10
10
10
10
10
10
10
10
10
10
10
10
10
10
10
10
10
10
10
10
10
10
10
11
11
11
11
11
11
11
11
11
11
11
11
11
11
11
11
11
11
11
11
11
11
11
11
11
11
11
11
11
11
11
11
11
11
11
11
12
12
12
12
12
12
12
12
12
12
12
12
12
12
12
12
12
12
12
12
12
12
12
12
12
12
12
12
12
12
12
12
12
12
12
12
13
13
13
13
13
13
13
13
13
13
13
13
13
13
13
13
13
13
13
13
13
13
13
13
13
13
13
13
13
13
13
13
13
13
13
13
14
14
14
14
14
14
14
14
14
14
14
14
14
14
14
14
14
14
14
14
14
14
14
14
14
14
14
14
14
14
14
14
14
14
14
14
15
15
15
15
15
15
15
15
15
15
15
15
15
15
15
15
15
15
15
15
15
15
15
15
15
15
15
15
15
15
15
15
15
15
15
15
15
15
15
15
15
15
15
15
15
15
15
15
15
15
15
15
15
15
15
15
15
15
15
15
15
15
15
15
15
15
15
15
15
15
15
15
15
15
15
15
15
15
15
15
15
15
15
15
15
15
15
15
15
15
15
15
15
15
15
15
15
15
15
15
15
15
15
15
15
15
15
15
15
15
15
15
15
15
15
15
15
15
15
15
15
15
15
15
15
15
15
15
15
15
15
15
15
15
15
15
15
15
15
15
15
15
15
15
15
15
15
15
15
15
15
15
15
15
15
15
15
15
15
15
15
15
15
15
15
15
15
15
15
15
15
15
15
15
15
15
15
15
15
15
15
15
15
15
15
15
15
15
15
15
15
15
15
15
15
15
15
15
15
15
15
15
15
15
15
15
15
15
15
15
15
15
15
15
15
15
