# vtk DataFile Version 2.0
shape2mesh, Created by Gmsh 4.13.1
ASCII
DATASET UNSTRUCTURED_GRID
POINTS 427 double
30 -30 0
32 -30 10
40 -30 0
42 -30 10
40 -23 0
42 -23 10
30.16666668382377 -30 0.8333334191188545
30.49999999307877 -30 2.499999965393862
31.00000000000001 -30 5.000000000000044
31.50000000692125 -30 7.500000034606231
31.83333331617624 -30 9.166666580881193
40.16666668382377 -30 0.8333334191188545
40.49999999307877 -30 2.499999965393862
41.00000000000001 -30 5.000000000000044
41.50000000692125 -30 7.500000034606231
41.83333331617624 -30 9.166666580881193
30.83333341911885 -30 0
32.49999996539384 -30 0
35 -30 0
37.50000003460617 -30 0
39.16666658088115 -30 0
32.83333341911885 -30 10
34.49999996539384 -30 10
37 -30 10
39.50000003460617 -30 10
41.16666658088115 -30 10
40.16666668382377 -23 0.8333334191188545
40.49999999307877 -23 2.499999965393862
41.00000000000001 -23 5.000000000000044
41.50000000692125 -23 7.500000034606231
41.83333331617624 -23 9.166666580881193
40 -29.41666660661681 0
40 -28.25000002422431 0
40 -26.5 0
40 -24.74999997577568 0
40 -23.58333339338319 0
42 -29.41666660661681 10
42 -28.25000002422431 10
42 -26.5 10
42 -24.74999997577568 10
42 -23.58333339338319 10
38.88888888888889 -23.77777777777778 0
37.77777777777778 -24.55555555555556 0
36.66666666666666 -25.33333333333333 0
35.55555555555556 -26.11111111111111 0
34.44444444444444 -26.88888888888889 0
33.33333333333334 -27.66666666666667 0
32.22222222222222 -28.44444444444444 0
31.11111111111111 -29.22222222222222 0
40.88888888888889 -23.77777777777778 10
39.77777777777778 -24.55555555555556 10
38.66666666666666 -25.33333333333333 10
37.55555555555556 -26.11111111111111 10
36.44444444444444 -26.88888888888889 10
35.33333333333334 -27.66666666666667 10
34.22222222222222 -28.44444444444444 10
33.11111111111111 -29.22222222222222 10
31.00000010294262 -30 0.8333334191188519
32.66666664921761 -30 0.8333334191188522
35.16666668382377 -30 0.8333334191188521
37.66666671842995 -30 0.8333334191188519
39.33333326470492 -30 0.8333334191188519
31.33333341219762 -30 2.499999965393854
32.99999995847261 -30 2.499999965393854
35.49999999307877 -30 2.499999965393854
38.00000002768495 -30 2.499999965393854
39.66666657395992 -30 2.499999965393854
31.83333341911885 -30 5.000000000000029
33.49999996539385 -30 5.000000000000029
36.00000000000001 -30 5.000000000000029
38.50000003460619 -30 5.000000000000029
40.16666658088116 -30 5.000000000000029
32.33333342604009 -30 7.500000034606208
33.99999997231508 -30 7.500000034606208
36.50000000692124 -30 7.500000034606208
39.00000004152742 -30 7.500000034606208
40.6666665878024 -30 7.500000034606208
32.66666673529508 -30 9.166666580881166
34.33333328157007 -30 9.166666580881163
36.83333331617623 -30 9.166666580881163
39.33333335078241 -30 9.166666580881166
40.99999989705739 -30 9.166666580881163
40.16666668382377 -29.41666660661681 0.8333334191188522
40.16666668382377 -28.25000002422431 0.8333334191188522
40.16666668382377 -26.5 0.8333334191188522
40.16666668382377 -24.74999997577568 0.8333334191188522
40.16666668382377 -23.5833333933832 0.8333334191188522
40.49999999307877 -29.41666660661681 2.499999965393854
40.49999999307877 -28.25000002422431 2.499999965393854
40.49999999307877 -26.5 2.499999965393854
40.49999999307877 -24.74999997577568 2.499999965393854
40.49999999307877 -23.58333339338319 2.499999965393854
41.00000000000001 -29.41666660661681 5.000000000000031
41.00000000000001 -28.25000002422431 5.000000000000029
41.00000000000001 -26.5 5.000000000000029
41.00000000000001 -24.74999997577568 5.000000000000031
41.00000000000001 -23.58333339338319 5.000000000000031
41.50000000692124 -29.41666660661681 7.500000034606209
41.50000000692124 -28.25000002422431 7.500000034606208
41.50000000692124 -26.5 7.500000034606209
41.50000000692124 -24.74999997577568 7.500000034606209
41.50000000692124 -23.58333339338319 7.500000034606209
41.83333331617624 -29.41666660661681 9.16666658088117
41.83333331617623 -28.25000002422431 9.166666580881165
41.83333331617624 -26.5 9.16666658088117
41.83333331617624 -24.74999997577568 9.16666658088117
41.83333331617624 -23.58333339338319 9.16666658088117
39.05555557271266 -23.77777777777778 0.8333334191188521
37.94444446160155 -24.55555555555556 0.8333334191188523
36.83333335049043 -25.33333333333333 0.8333334191188521
35.72222223937933 -26.11111111111111 0.8333334191188523
34.61111112826821 -26.88888888888889 0.8333334191188521
33.50000001715711 -27.66666666666666 0.8333334191188519
32.38888890604599 -28.44444444444444 0.8333334191188517
31.27777779493488 -29.22222222222222 0.8333334191188519
39.38888888196766 -23.77777777777778 2.499999965393855
38.27777777085655 -24.55555555555556 2.499999965393854
37.16666665974544 -25.33333333333333 2.499999965393854
36.05555554863432 -26.11111111111111 2.499999965393854
34.94444443752322 -26.88888888888889 2.499999965393854
33.8333333264121 -27.66666666666667 2.499999965393855
32.722222215301 -28.44444444444444 2.499999965393854
31.61111110418988 -29.22222222222222 2.499999965393855
39.88888888888889 -23.77777777777778 5.000000000000032
38.77777777777779 -24.55555555555556 5.00000000000003
37.66666666666667 -25.33333333333333 5.00000000000003
36.55555555555556 -26.11111111111111 5.00000000000003
35.44444444444445 -26.88888888888889 5.00000000000003
34.33333333333334 -27.66666666666667 5.00000000000003
33.22222222222223 -28.44444444444445 5.00000000000003
32.11111111111112 -29.22222222222222 5.00000000000003
40.38888889581013 -23.77777777777778 7.500000034606208
39.27777778469902 -24.55555555555556 7.500000034606208
38.1666666735879 -25.33333333333334 7.500000034606208
37.0555555624768 -26.11111111111111 7.500000034606209
35.94444445136568 -26.88888888888889 7.500000034606209
34.83333334025458 -27.66666666666667 7.500000034606209
33.72222222914346 -28.44444444444445 7.500000034606209
32.61111111803235 -29.22222222222222 7.500000034606208
40.72222220506512 -23.77777777777778 9.166666580881161
39.61111109395401 -24.55555555555556 9.166666580881165
38.4999999828429 -25.33333333333333 9.166666580881165
37.38888887173179 -26.11111111111111 9.166666580881165
36.27777776062068 -26.88888888888889 9.166666580881165
35.16666664950957 -27.66666666666667 9.166666580881165
34.05555553839845 -28.44444444444445 9.166666580881165
32.94444442728734 -29.22222222222222 9.166666580881165
39.25925918300547 -29.93518517851298 0
39.35185178512979 -29.87037035702595 0
39.4444443872541 -29.80555553553893 0
39.53703698937842 -29.74074071405191 0
39.62962959150273 -29.67592589256489 0
39.72222219362705 -29.61111107107787 0
39.81481479575137 -29.54629624959085 0
39.90740739787569 -29.48148142810383 0
37.77777780853883 -29.80555555824714 0
38.05555558247148 -29.61111111649429 0
38.33333335640413 -29.41666667474144 0
38.61111113033677 -29.22222223298858 0
38.88888890426941 -29.02777779123573 0
39.16666667820206 -28.83333334948287 0
39.44444445213471 -28.63888890773002 0
39.72222222606736 -28.44444446597717 0
35.55555555555556 -29.61111111111111 0
36.11111111111111 -29.22222222222222 0
36.66666666666667 -28.83333333333333 0
37.22222222222223 -28.44444444444444 0
37.77777777777778 -28.05555555555555 0
38.33333333333334 -27.66666666666666 0
38.88888888888889 -27.27777777777778 0
39.44444444444445 -26.88888888888889 0
33.33333330257231 -29.41666666397507 0
34.16666663975077 -28.83333332795015 0
34.99999997692923 -28.24999999192523 0
35.83333331410769 -27.6666666559003 0
36.66666665128616 -27.08333331987537 0
37.49999998846462 -26.49999998385045 0
38.33333332564308 -25.91666664782552 0
39.16666666282154 -25.3333333118006 0
31.85185192810565 -29.28703704370924 0
32.87037043709244 -28.57407408741848 0
33.88888894607923 -27.86111113112773 0
34.90740745506603 -27.14814817483697 0
35.92592596405282 -26.43518521854622 0
36.94444447303962 -25.72222226225546 0
37.96296298202641 -25.0092593059647 0
38.98148149101321 -24.29629634967395 0
41.25925918300547 -29.93518517851298 10
41.35185178512979 -29.87037035702595 10
41.4444443872541 -29.80555553553893 10
41.53703698937842 -29.74074071405191 10
41.62962959150273 -29.67592589256489 10
41.72222219362705 -29.61111107107787 10
41.81481479575137 -29.54629624959085 10
41.90740739787569 -29.48148142810383 10
39.77777780853883 -29.80555555824714 10
40.05555558247148 -29.61111111649429 10
40.33333335640413 -29.41666667474144 10
40.61111113033677 -29.22222223298858 10
40.88888890426941 -29.02777779123573 10
41.16666667820206 -28.83333334948287 10
41.44444445213471 -28.63888890773002 10
41.72222222606736 -28.44444446597717 10
37.55555555555556 -29.61111111111111 10
38.11111111111111 -29.22222222222222 10
38.66666666666667 -28.83333333333333 10
39.22222222222223 -28.44444444444444 10
39.77777777777778 -28.05555555555555 10
40.33333333333334 -27.66666666666666 10
40.88888888888889 -27.27777777777778 10
41.44444444444445 -26.88888888888889 10
35.33333330257231 -29.41666666397507 10
36.16666663975077 -28.83333332795015 10
36.99999997692923 -28.24999999192523 10
37.83333331410769 -27.6666666559003 10
38.66666665128616 -27.08333331987537 10
39.49999998846462 -26.49999998385045 10
40.33333332564308 -25.91666664782552 10
41.16666666282154 -25.3333333118006 10
33.85185192810565 -29.28703704370924 10
34.87037043709244 -28.57407408741848 10
35.88888894607923 -27.86111113112773 10
36.90740745506603 -27.14814817483697 10
37.92592596405282 -26.43518521854622 10
38.94444447303962 -25.72222226225546 10
39.96296298202641 -25.0092593059647 10
40.98148149101321 -24.29629634967395 10
39.42592586682925 -29.93518517851297 0.8333334191188522
39.75925917608424 -29.93518517851298 2.499999965393854
40.25925918300548 -29.93518517851299 5.000000000000029
40.75925918992671 -29.93518517851298 7.500000034606204
41.09259249918171 -29.93518517851297 9.166666580881161
39.51851846895357 -29.87037035702596 0.8333334191188517
39.85185177820857 -29.87037035702596 2.499999965393854
40.3518517851298 -29.87037035702596 5.000000000000028
40.85185179205101 -29.87037035702596 7.500000034606207
[...]
CELL_DATA 624
SCALARS CellEntityIds int 1
LOOKUP_TABLE default
-1
-1
-1
-1
-1
-1
1
1
1
1
1
1
2
2
2
2
2
2
3
3
3
3
3
3
4
4
4
4
4
4
5
5
5
5
5
5
6
6
6
6
6
6
7
7
7
7
7
7
8
8
8
8
8
8
8
8
8
9
9
9
9
9
9
9
9
9
10
10
10
10
10
10
10
10
10
10
10
10
10
10
10
10
10
10
10
10
10
10
10
10
10
10
10
10
10
10
10
10
10
10
10
10
11
11
11
11
11
11
11
11
11
11
11
11
11
11
11
11
11
11
11
11
11
11
11
11
11
11
11
11
11
11
11
11
11
11
11
11
12
12
12
12
12
12
12
12
12
12
12
12
12
12
12
12
12
12
12
12
12
12
12
12
12
12
12
12
12
12
12
12
12
12
12
12
12
12
12
12
12
12
12
12
12
12
12
12
12
12
12
12
12
12
13
13
13
13
13
13
13
13
13
13
13
13
13
13
13
13
13
13
13
13
13
13
13
13
13
13
13
13
13
13
13
13
13
13
13
13
13
13
13
13
13
13
13
13
13
13
13
13
13
13
13
13
13
13
14
14
14
14
14
14
14
14
14
14
14
14
14
14
14
14
14
14
14
14
14
14
14
14
14
14
14
14
14
14
14
14
14
14
14
14
14
14
14
14
14
14
14
14
14
14
14
14
14
14
14
14
14
14
15
15
15
15
15
15
15
15
15
15
15
15
15
15
15
15
15
15
15
15
15
15
15
15
15
15
15
15
15
15
15
15
15
15
15
15
15
15
15
15
15
15
15
15
15
15
15
15
15
15
15
15
15
15
15
15
15
15
15
15
15
15
15
15
15
15
15
15
15
15
15
15
15
15
15
15
15
15
15
15
15
15
15
15
15
15
15
15
15
15
15
15
15
15
15
15
15
15
15
15
15
15
15
15
15
15
15
15
15
15
15
15
15
15
15
15
15
15
15
15
15
15
15
15
15
15
15
15
15
15
15
15
15
15
15
15
15
15
15
15
15
15
15
15
15
15
15
15
15
15
15
15
15
15
15
15
15
15
15
15
15
15
15
15
15
15
15
15
15
15
15
15
15
15
15
15
15
15
15
15
15
15
15
15
15
15
15
15
15
15
15
15
15
15
15
15
15
15
15
15
15
15
15
15
15
15
15
15
15
15
15
15
15
15
15
15
15
15
15
15
15
15
15
15
15
15
15
15
15
15
15
15
15
15
15
15
15
15
15
15
15
15
15
15
15
15
15
15
15
15
15
15
15
15
15
15
15
15
15
15
15
15
15
15
15
15
15
15
15
15
15
15
15
15
15
15
15
15
15
15
15
15
15
15
15
15
15
15
15
15
15
15
15
15
15
15
15
15
15
15
15
15
15
15
15
15
15
15
15
15
15
15
15
15
15
15
15
15
15
15
15
15
15
15
