# vtk DataFile Version 2.0
shape2mesh, Created by Gmsh 4.13.1 
ASCII
DATASET UNSTRUCTURED_GRID
POINTS 361 double
30 -60 0
32 -60 10
40 -60 0
42 -60 10
35 -52 0
37 -52 10
30.33333333333334 -60 1.666666666666672
30.66666666666667 -60 3.333333333333343
31 -60 5.000000000000015
31.33333333333334 -60 6.666666666666687
31.66666666666667 -60 8.333333333333357
40.33333333333334 -60 1.666666666666672
40.66666666666667 -60 3.333333333333343
41 -60 5.000000000000015
41.33333333333334 -60 6.666666666666687
41.66666666666667 -60 8.333333333333357
31.66666666666667 -60 0
33.33333333333334 -60 0
35 -60 0
36.66666666666666 -60 0
38.33333333333334 -60 0
33.66666666666666 -60 10
35.33333333333334 -60 10
37 -60 10
38.66666666666666 -60 10
40.33333333333334 -60 10
35.33333333333334 -52 1.666666666666672
35.66666666666667 -52 3.333333333333343
36 -52 5.000000000000015
36.33333333333334 -52 6.666666666666687
36.66666666666667 -52 8.333333333333357
39.16666666666666 -58.66666666666666 0
38.33333333333334 -57.33333333333334 0
37.5 -56 0
36.66666666666667 -54.66666666666667 0
35.83333333333334 -53.33333333333334 0
41.16666666666666 -58.66666666666666 10
40.33333333333334 -57.33333333333334 10
39.5 -56 10
38.66666666666667 -54.66666666666667 10
37.83333333333334 -53.33333333333334 10
34.16666666666666 -53.33333333333334 0
33.33333333333334 -54.66666666666666 0
32.5 -56 0
31.66666666666667 -57.33333333333333 0
30.83333333333334 -58.66666666666666 0
36.16666666666666 -53.33333333333334 10
35.33333333333334 -54.66666666666666 10
34.5 -56 10
33.66666666666667 -57.33333333333333 10
32.83333333333334 -58.66666666666666 10
32 -60 1.666666666666667
33.66666666666666 -60 1.666666666666667
35.33333333333333 -60 1.666666666666666
37 -60 1.666666666666667
38.66666666666666 -60 1.666666666666667
32.33333333333334 -60 3.333333333333333
34 -60 3.333333333333333
35.66666666666666 -60 3.333333333333333
37.33333333333334 -60 3.333333333333334
39 -60 3.333333333333333
32.66666666666666 -60 4.999999999999998
34.33333333333334 -60 5.000000000000001
36 -60 4.999999999999999
37.66666666666666 -60 4.999999999999999
39.33333333333334 -60 4.999999999999999
33 -60 6.666666666666666
34.66666666666667 -60 6.666666666666666
36.33333333333334 -60 6.666666666666667
38 -60 6.666666666666668
39.66666666666666 -60 6.666666666666667
33.33333333333334 -60 8.333333333333332
35 -60 8.333333333333332
36.66666666666666 -60 8.333333333333332
38.33333333333334 -60 8.333333333333332
40 -60 8.333333333333332
39.5 -58.66666666666666 1.666666666666667
38.66666666666666 -57.33333333333334 1.666666666666667
37.83333333333334 -56 1.666666666666667
37 -54.66666666666667 1.666666666666667
36.16666666666667 -53.33333333333334 1.666666666666667
39.83333333333334 -58.66666666666666 3.333333333333334
39 -57.33333333333334 3.333333333333335
38.16666666666667 -56 3.333333333333333
37.33333333333334 -54.66666666666667 3.333333333333334
36.5 -53.33333333333334 3.333333333333333
40.16666666666666 -58.66666666666666 5
39.33333333333334 -57.33333333333334 5.000000000000001
38.5 -56 5.000000000000001
37.66666666666667 -54.66666666666667 5.000000000000001
36.83333333333334 -53.33333333333334 5
40.5 -58.66666666666666 6.666666666666665
39.66666666666666 -57.33333333333334 6.666666666666666
38.83333333333334 -56 6.666666666666666
38 -54.66666666666667 6.666666666666668
37.16666666666667 -53.33333333333334 6.666666666666668
40.83333333333334 -58.66666666666666 8.333333333333334
40 -57.33333333333334 8.333333333333336
39.16666666666667 -56 8.333333333333336
38.33333333333334 -54.66666666666667 8.33333333333333
37.5 -53.33333333333334 8.333333333333336
34.5 -53.33333333333334 1.666666666666667
33.66666666666666 -54.66666666666666 1.666666666666667
32.83333333333334 -56 1.666666666666667
32 -57.33333333333333 1.666666666666667
31.16666666666667 -58.66666666666666 1.666666666666667
34.83333333333334 -53.33333333333334 3.333333333333333
34 -54.66666666666666 3.333333333333333
33.16666666666666 -56 3.333333333333333
32.33333333333334 -57.33333333333333 3.333333333333334
31.5 -58.66666666666666 3.333333333333334
35.16666666666666 -53.33333333333334 5
34.33333333333334 -54.66666666666666 5.000000000000001
33.5 -56 5.000000000000001
32.66666666666667 -57.33333333333333 5.000000000000001
31.83333333333334 -58.66666666666666 5
35.5 -53.33333333333334 6.666666666666665
34.66666666666666 -54.66666666666666 6.666666666666666
33.83333333333334 -56 6.666666666666666
33 -57.33333333333333 6.666666666666668
32.16666666666667 -58.66666666666666 6.666666666666668
35.83333333333334 -53.33333333333334 8.333333333333334
35 -54.66666666666666 8.333333333333336
34.16666666666667 -56 8.333333333333336
33.33333333333334 -57.33333333333333 8.333333333333334
32.5 -58.66666666666666 8.333333333333336
31.52777777777778 -59.77777777777778 0
31.38888888888889 -59.55555555555556 0
31.25 -59.33333333333333 0
31.11111111111111 -59.11111111111111 0
30.97222222222222 -58.88888888888889 0
33.05555555555556 -59.55555555555556 0
32.77777777777778 -59.11111111111111 0
32.5 -58.66666666666666 0
32.22222222222222 -58.22222222222222 0
31.94444444444445 -57.77777777777778 0
34.58333333333334 -59.33333333333334 0
34.16666666666666 -58.66666666666666 0
33.75 -58 0
33.33333333333334 -57.33333333333333 0
32.91666666666666 -56.66666666666666 0
36.11111111111111 -59.11111111111111 0
35.55555555555556 -58.22222222222222 0
35 -57.33333333333334 0
34.44444444444444 -56.44444444444444 0
33.88888888888889 -55.55555555555556 0
37.63888888888889 -58.88888888888889 0
36.94444444444444 -57.77777777777778 0
36.25 -56.66666666666666 0
35.55555555555556 -55.55555555555556 0
34.86111111111111 -54.44444444444444 0
33.52777777777778 -59.77777777777778 10
33.38888888888889 -59.55555555555556 10
33.25 -59.33333333333333 10
33.11111111111111 -59.11111111111111 10
32.97222222222222 -58.88888888888889 10
35.05555555555556 -59.55555555555556 10
34.77777777777778 -59.11111111111111 10
34.5 -58.66666666666666 10
34.22222222222222 -58.22222222222222 10
33.94444444444444 -57.77777777777778 10
36.58333333333334 -59.33333333333334 10
36.16666666666666 -58.66666666666666 10
35.75 -58 10
35.33333333333334 -57.33333333333333 10
34.91666666666666 -56.66666666666666 10
38.11111111111111 -59.11111111111111 10
37.55555555555556 -58.22222222222222 10
37 -57.33333333333334 10
36.44444444444444 -56.44444444444444 10
35.88888888888889 -55.55555555555556 10
39.63888888888889 -58.88888888888889 10
38.94444444444444 -57.77777777777778 10
38.25 -56.66666666666666 10
37.55555555555556 -55.55555555555556 10
36.86111111111111 -54.44444444444444 10
31.86111111111111 -59.77777777777779 1.666666666666667
32.19444444444446 -59.77777777777779 3.33333333333333
32.52777777777779 -59.77777777777779 4.999999999999995
32.86111111111112 -59.77777777777779 6.666666666666661
33.19444444444444 -59.77777777777779 8.333333333333327
31.72222222222224 -59.55555555555553 1.666666666666667
32.05555555555556 -59.55555555555554 3.333333333333331
32.38888888888891 -59.55555555555556 4.999999999999996
32.72222222222223 -59.55555555555557 6.666666666666663
33.05555555555556 -59.55555555555558 8.333333333333329
31.58333333333333 -59.33333333333333 1.666666666666666
31.91666666666667 -59.33333333333332 3.333333333333332
32.25000000000003 -59.33333333333331 4.999999999999996
32.58333333333332 -59.33333333333332 6.666666666666662
32.91666666666667 -59.33333333333331 8.333333333333329
31.44444444444445 -59.11111111111113 1.666666666666665
31.77777777777777 -59.11111111111109 3.33333333333333
32.11111111111111 -59.11111111111108 4.999999999999996
32.44444444444444 -59.11111111111109 6.666666666666661
32.77777777777777 -59.11111111111109 8.333333333333332
31.30555555555556 -58.88888888888889 1.666666666666666
31.63888888888889 -58.88888888888886 3.333333333333331
31.97222222222223 -58.88888888888884 4.999999999999996
32.30555555555556 -58.88888888888887 6.666666666666663
32.63888888888889 -58.88888888888889 8.333333333333332
33.38888888888888 -59.55555555555553 1.666666666666665
33.72222222222223 -59.55555555555554 3.33333333333333
34.05555555555556 -59.55555555555554 4.999999999999996
34.38888888888891 -59.55555555555557 6.666666666666657
34.72222222222222 -59.55555555555557 8.333333333333323
33.11111111111111 -59.11111111111109 1.666666666666665
33.44444444444444 -59.11111111111108 3.333333333333331
33.77777777777779 -59.11111111111109 4.999999999999996
34.1111111111111 -59.11111111111109 6.666666666666658
34.44444444444443 -59.1111111111111 8.333333333333325
32.83333333333332 -58.66666666666668 1.666666666666666
33.16666666666666 -58.66666666666667 3.333333333333331
33.5 -58.6666666666667 4.999999999999996
33.83333333333333 -58.66666666666669 6.666666666666664
34.16666666666667 -58.66666666666669 8.333333333333325
32.55555555555556 -58.22222222222221 1.666666666666666
32.88888888888891 -58.22222222222223 3.333333333333331
33.22222222222221 -58.22222222222224 4.999999999999996
33.55555555555554 -58.22222222222224 6.666666666666659
33.88888888888889 -58.22222222222223 8.333333333333325
32.27777777777776 -57.77777777777776 1.666666666666666
32.61111111111111 -57.7777777777778 3.333333333333331
32.94444444444445 -57.77777777777779 4.999999999999995
33.27777777777776 -57.77777777777776 6.666666666666659
33.61111111111112 -57.77777777777781 8.333333333333329
34.91666666666667 -59.33333333333333 1.666666666666664
35.25 -59.33333333333332 3.333333333333328
35.58333333333333 -59.33333333333332 4.999999999999993
35.91666666666669 -59.33333333333332 6.666666666666655
36.25 -59.33333333333333 8.333333333333321
34.5 -58.66666666666665 1.666666666666665
34.83333333333333 -58.66666666666667 3.333333333333329
35.16666666666666 -58.66666666666666 4.999999999999992
35.50000000000001 -58.66666666666668 6.666666666666656
35.83333333333331 -58.66666666666667 8.33333333333332
34.08333333333335 -58.00000000000001 1.666666666666664
34.41666666666664 -58 3.333333333333328
34.75 -58.00000000000001 4.999999999999993
[...]
CELL_DATA 876
SCALARS CellEntityIds int 1
LOOKUP_TABLE default
-1
-1
-1
-1
-1
-1
1
1
1
1
1
1
2
2
2
2
2
2
3
3
3
3
3
3
4
4
4
4
4
4
5
5
5
5
5
5
6
6
6
6
6
6
7
7
7
7
7
7
8
8
8
8
8
8
9
9
9
9
9
9
10
10
10
10
10
10
10
10
10
10
10
10
10
10
10
10
10
10
10
10
10
10
10
10
10
10
10
10
10
10
10
10
10
10
10
10
11
11
11
11
11
11
11
11
11
11
11
11
11
11
11
11
11
11
11
11
11
11
11
11
11
11
11
11
11
11
11
11
11
11
11
11
12
12
12
12
12
12
12
12
12
12
12
12
12
12
12
12
12
12
12
12
12
12
12
12
12
12
12
12
12
12
12
12
12
12
12
12
13
13
13
13
13
13
13
13
13
13
13
13
13
13
13
13
13
13
13
13
13
13
13
13
13
13
13
13
13
13
13
13
13
13
13
13
13
13
13
13
13
13
13
13
13
13
13
13
13
13
13
13
13
13
13
13
13
13
13
13
13
13
13
13
13
13
14
14
14
14
14
14
14
14
14
14
14
14
14
14
14
14
14
14
14
14
14
14
14
14
14
14
14
14
14
14
14
14
14
14
14
14
14
14
14
14
14
14
14
14
14
14
14
14
14
14
14
14
14
14
14
14
14
14
14
14
14
14
14
14
14
14
15
15
15
15
15
15
15
15
15
15
15
15
15
15
15
15
15
15
15
15
15
15
15
15
15
15
15
15
15
15
15
15
15
15
15
15
15
15
15
15
15
15
15
15
15
15
15
15
15
15
15
15
15
15
15
15
15
15
15
15
15
15
15
15
15
15
15
15
15
15
15
15
15
15
15
15
15
15
15
15
15
15
15
15
15
15
15
15
15
15
15
15
15
15
15
15
15
15
15
15
15
15
15
15
15
15
15
15
15
15
15
15
15
15
15
15
15
15
15
15
15
15
15
15
15
15
15
15
15
15
15
15
15
15
15
15
15
15
15
15
15
15
15
15
15
15
15
15
15
15
15
15
15
15
15
15
15
15
15
15
15
15
15
15
15
15
15
15
15
15
15
15
15
15
15
15
15
15
15
15
15
15
15
15
15
15
15
15
15
15
15
15
15
15
15
15
15
15
15
15
15
15
15
15
15
15
15
15
15
15
15
15
15
15
15
15
15
15
15
15
15
15
15
15
15
15
15
15
15
15
15
15
15
15
15
15
15
15
15
15
15
15
15
15
15
15
15
15
15
15
15
15
15
15
15
15
15
15
15
15
15
15
15
15
15
15
15
15
15
15
15
15
15
15
15
15
15
15
15
15
15
15
15
15
15
15
15
15
15
15
15
15
15
15
15
15
15
15
15
15
15
15
15
15
15
15
15
15
15
15
15
15
15
15
15
15
15
15
15
15
15
15
15
15
15
15
15
15
15
15
15
15
15
15
15
15
15
15
15
15
15
15
15
15
15
15
15
15
15
15
15
15
15
15
15
15
15
15
15
15
15
15
15
15
15
15
15
15
15
15
15
15
15
15
15
15
15
15
15
15
15
15
15
15
15
15
15
15
15
15
15
15
15
15
15
15
15
15
15
15
15
15
15
15
15
15
15
15
15
15
15
15
15
15
15
15
15
15
15
15
15
15
15
15
15
15
15
15
15
15
15
15
15
15
15
15
15
15
15
15
15
15
15
15
15
15
15
15
15
15
15
15
15
15
15
15
15
15
15
15
15
15
15
15
15
15
15
15
15
15
15
15
15
15
15
15
15
15
15
15
15
15
15
15
15
15
15
15
15
15
15
15
15
15
15
15
15
15
15
15
15
15
15
15
15
15
15
15
15
15
15
15
15
15
15
15
15
15
15
15
15
15
15
15
15
15
15
15
15
15
15
15
15
15
15
15
15
15
15
15
15
15
15
15
15
15
15
15
15
15
15
15
15
15
15
15
15
15
15
15
15
15
15
15
15
15
15
15
15
15
15
15
15
15
15
15
