# vtk DataFile Version 2.0
shape2mesh, Created by Gmsh 4.13.1 
ASCII
DATASET UNSTRUCTURED_GRID
POINTS 301 double
60 -60 0
81.6346153846154 -55.67307692307692 12.7381166341267
70 -60 0
77.2115384615385 -58.55769230769231 4.24603887804223
65 -52 0
77.1153846153846 -49.5769230769231 7.13334531511095
60.21911899193808 -59.95617620161238 2.554140971091766
61.93232585468673 -59.61353482906265 7.354354975357368
67.21153846153857 -58.55769230769229 12.73811663412677
74.423077027614 -57.1153845944772 14.7087101353638
79.35605951599518 -56.12878809680096 13.82166646586576
70.07303966397936 -59.98539206720413 0.8513803236972578
70.64410861822891 -59.87117827635422 2.451451658452461
72.4038461538462 -59.51923076923076 4.246038878042263
74.80769234253802 -59.03846153149239 4.902903378454601
76.45201983866507 -58.70959603226699 4.607222155288585
60.83333341911885 -60 0
62.49999996539384 -60 0
65 -60 0
67.50000003460617 -60 0
69.16666658088116 -60 0
81.26602560308207 -55.91346156320736 12.0304434149366
80.52884616915274 -56.39423075924822 10.6150972244934
79.42307692307693 -57.11538461538461 8.492077756084464
78.31730767700112 -57.83653847152101 6.369058287675511
77.58012824307181 -58.31730766756186 4.953712097232327
65.12270663548533 -51.97545867290294 1.430318943811393
66.08210247862458 -51.78357950427509 4.118438786200135
69.03846153846162 -51.19230769230768 7.133345315111002
73.07692313546387 -50.38461537290723 8.236877675803729
75.83939332895731 -49.83212133420854 7.740133220884821
69.58333329044058 -59.33333326470492 0
68.75000001730308 -58.00000002768493 0
67.5 -55.99999999999999 0
66.24999998269691 -53.99999997231505 0
65.41666670955942 -52.66666673529508 0
77.20352564020079 -57.80929479475287 4.486647772566863
77.18750000033278 -56.31250003107899 4.967865477317549
77.16346153846156 -54.06730769230768 5.689692096576592
77.13942307659035 -51.82211535353636 6.411518715835637
77.12339743672231 -50.3253205898625 6.892736420586317
64.58333329044058 -52.66666673529508 0
63.75000001730308 -53.99999997231507 0
62.5 -56.00000000000001 0
61.24999998269691 -58.00000002768495 0
60.41666670955942 -59.33333326470492 0
77.49198721825566 -50.08493594973206 7.600409639776418
78.24519229205301 -51.10096151736509 8.534538125468924
79.37500000000003 -52.625 9.93573097461883
80.50480770794705 -54.14903848263492 11.33692382376874
81.25801278174438 -55.16506405026793 12.27105230946123
61.04027913247388 -59.95861085732899 2.412244235868332
62.68259912584777 -59.96348016790921 2.128450815135736
65.14607932795872 -59.97078413440826 1.70276064739451
67.60955953006969 -59.97808810090729 1.277070479653279
69.25187952344355 -59.98295741148752 0.9932770589206859
62.65830782638305 -59.63500511854716 6.945779656888804
64.11027151542413 -59.67794568999394 6.128629163098197
66.28821723645781 -59.74235655270844 4.902903316904908
68.46616295749152 -59.80676741542293 3.677177470711609
69.91812664653258 -59.84970798686971 2.860026976921006
67.64423081377333 -58.6378205210691 12.03044341493665
68.50961536664687 -58.79807691974939 10.61509722449345
69.80769230769236 -59.03846153846153 8.492077756084511
71.10576924873787 -59.27884615717366 6.369058287675547
71.97115380161141 -59.43910255585394 4.953712097232361
74.45512830715707 -57.27564102239235 13.89155948816842
74.51923085501396 -57.59615382207597 12.25725848007064
74.61538468507598 -58.0769230629848 9.805806756909202
74.711538515138 -58.55769230389363 7.354355033747753
74.77564106299489 -58.87820510357725 5.720054025649988
79.11405618463849 -56.34385544689607 13.05379602760443
78.63004960671236 -56.77399007173629 11.51805542010914
77.90403967733008 -57.41919206453398 9.214444310577186
77.17802974794779 -58.06439405733168 6.910833201045219
76.69402317002167 -58.4945286821719 5.375092593549945
69.66051186913818 -59.31789754896541 0.8996252136732218
68.83545642398705 -57.98290874634814 0.9961149767223048
67.59787314973234 -55.98042537005352 1.140849633754323
66.36028987547762 -53.97794199375891 1.285584290786342
65.53523443032651 -52.64295319114166 1.382074053835424
70.26394140079314 -59.19721164263441 2.590367266731764
69.50360709911519 -57.84927861132252 2.868198434620569
68.36310554842674 -55.82737889031465 3.284945222326293
67.22260399773829 -53.80547916930678 3.701692010032016
66.46226969606033 -52.4575461379949 3.979523177920819
72.12339740702735 -58.82532044138757 4.486647772566893
71.56250001164635 -57.43750002881628 4.967865477317579
70.7211538461539 -55.35576923076922 5.689692096576625
69.87980768066144 -53.27403843272215 6.411518715835673
69.31891028528044 -51.88621802015088 6.892736420586356
74.66346156043433 -58.31730761070617 5.180734598501033
74.37500004675898 -56.87500002179375 5.736396941254276
73.94230773900092 -54.71153845219981 6.569890527129167
73.50961543124285 -52.54807688260587 7.40338411300406
73.22115391756752 -51.10576929369346 7.959046455757298
76.40096762426728 -57.96980639793958 4.868298104297452
76.29886321335816 -56.49022738847392 5.390449910845849
76.14570658381115 -54.27085868323777 6.173677688086714
75.99254995426415 -52.05148997800161 6.956905465327583
75.89044554335503 -50.57191096853596 7.479057271875975
64.71407428979072 -52.64051853542505 1.523970789058853
63.89680974156796 -53.97063802746209 1.711274446742365
62.67091281371171 -55.96581743725766 1.992229957451576
61.44501588585545 -57.96099684705324 2.273185468160786
60.62775133763271 -59.29111633909027 2.460489125844296
65.73628772436402 -52.43607584851039 4.38809849638937
65.0446583370009 -53.7410683083755 4.927417822291169
64.00721416665566 -55.69855716666888 5.736396880778742
62.9697699963104 -57.65604602496225 6.545375939266319
62.2781406089473 -58.96103848482735 7.08469526516811
68.88621793304567 -51.80608980677407 7.600409639776459
68.58173077555313 -53.03365382066506 8.534538125468968
68.12500000000009 -54.87499999999999 9.935730974618874
67.66826922444703 -56.71634617933493 11.33692382376879
67.36378206695449 -57.94391019322591 12.27105230946128
73.18910263802441 -50.94551286577832 8.776197102952684
73.41346160384286 -52.06730765500711 9.854835768297216
73.7500000815389 -53.74999998369223 11.47279390558377
74.08653855923495 -55.43269231237734 13.09075204287032
74.31089752505341 -56.55448710160613 14.16939070821485
76.13244887471166 -50.35684361844086 8.246927710137326
76.71855986354691 -51.40628800306631 9.26051651108421
77.5977264224762 -52.98045471550476 10.78089984337531
78.4768929814055 -54.55462142794323 12.3012831756664
79.06300397024074 -55.60406581256866 13.31487197661328
60.79861118974783 -59.94444443300637 0
60.72916674317091 -59.83333331848331 0
60.62500006433913 -59.66666663235246 0
60.52083338550736 -59.49999994622161 0
60.45138893893044 -59.38888883169854 0
62.3958332894459 -59.83333331848331 0
62.18749997404538 -59.50000001384247 0
61.87499997404537 -59.00000001384247 0
61.56249997404537 -58.50000001384247 0
61.35416665864484 -58.16666670920164 0
64.79166664522029 -59.66666663235246 0
64.37500000865154 -59.00000001384247 0
63.74999999999999 -58 0
63.12499999134845 -56.99999998615753 0
62.70833335477971 -56.33333336764754 0
67.18750000099469 -59.49999994622161 0
66.56250004325771 -58.50000001384247 0
65.62500002595463 -56.99999998615753 0
64.68750000865154 -55.49999995847259 0
64.06250005091458 -54.50000002609345 0
68.78472210069273 -59.38888883169854 0
68.02083327413217 -58.16666670920162 0
66.87499993566085 -56.33333336764753 0
65.72916659718955 -54.50000002609344 0
64.96527777062899 -53.27777790359654 0
81.26535786790186 -55.85109509737557 12.05049415821106
81.26402239777538 -55.72636218756242 12.09059563773511
81.26201919241322 -55.53926280673764 12.15074786219892
81.26001598705108 -55.35216342591286 12.21090008666273
81.2586805169246 -55.22743051609971 12.25100156618677
80.52684296384605 -56.20713138360328 10.67524944729191
80.52283655393451 -55.83293269786464 10.79555387181427
80.5168269385499 -55.27163462094157 10.97601052413107
80.51081732316528 -54.71033654401849 11.15646717644787
80.50681091325373 -54.33613785827986 11.27677160097023
79.4190705124081 -56.7411858589149 8.612382203346783
79.41105769247409 -55.99278847707795 8.852991055722127
79.39903846153848 -54.8701923076923 9.213904365351649
79.38701923060287 -53.74759613830664 9.574817674981173
79.37900641066886 -52.99919875646971 9.815426527356513
78.31129806097015 -57.27524033422652 6.549514959401644
78.29927883101367 -56.15264425629127 6.910428239629971
78.28124998452707 -54.46874999444304 7.45179820657222
78.26322113804048 -52.7848557325948 7.993168173514472
78.251201908084 -51.66225965465956 8.354081453742793
77.57278315691435 -57.63127662045422 5.1742702484825
77.5580929871728 -56.25921476659349 5.615386473709147
77.53605773066374 -54.20112180864695 6.277060868504376
77.51402247415467 -52.14302885070041 6.938735263299607
77.49933230441313 -50.7709669968397 7.379851488526247
61.00590181269822 -59.9029863084163 2.4162646437802
62.62662722166879 -59.57884122662217 6.957355958770442
67.6208600824659 -58.57999465446277 12.05049415821112
74.44310907407781 -57.21554485614038 13.91471209222234
79.10980183300072 -56.2822063043558 13.07555235892815
60.93714718519117 -59.79173723007926 2.424305458195366
62.56326602333972 -59.46651346244955 6.9805085584779
67.57411862803917 -58.46434294150966 12.09059563773515
74.41907061213027 -57.09535254469142 13.96101729221856
79.10129313121575 -56.15890804087437 13.11906501395316
60.8340152350533 -59.6248635982096 2.436366680856314
62.46822421766518 -59.29802180168727 7.015237461028457
67.50400644036394 -58.2908653571475 12.15074786219897
74.38301291610526 -56.91506406199926 14.03047509819164
79.08853007743963 -55.97396062973236 13.18433400210885
60.73088328491539 -59.45798996633999 2.448427903517262
62.37318241199067 -59.12953014092496 7.049966363579015
67.43389425268866 -58.11738777278536 12.21090008666278
74.34695522008019 -56.73477557930705 14.0999329041647
79.07576702366352 -55.78901321859039 13.24960299026455
60.66212865740838 -59.34674088800295 2.456468717932427
62.30982121366154 -59.01720237675231 7.073118963286474
67.38715279826189 -58.00173605983227 12.25100156618682
74.32291675813266 -56.6145832678581 14.14623810416093
79.0672583218785 -55.66571495510894 13.29311564528956
62.57946717856507 -59.79660654065948 2.14051203746277
64.0152297123808 -59.50945403389634 6.163358064687291
68.43950318091271 -58.62459934018995 10.67524944729195
74.4831731599872 -57.41586534437502 12.32671628412078
78.61728655328957 -56.58904266571457 11.58332440645787
62.37320332013253 -59.46285934462504 2.164634477891127
63.82514613959255 -59.17247078073304 6.232815855698025
68.2992788340085 -58.27764424184985 10.79555387181432
74.41105778256659 -57.05528845213822 12.46563186788615
78.59176045091564 -56.21914791846842 11.713862356288
62.06380750585161 -58.96223850748121 2.200818141648261
63.5400207558673 -58.66699585747808 6.337002551182257
68.08894229554693 -57.75721154954218 10.97601052413111
74.30288470712446 -56.51442306722667 12.67400526147048
78.55347129405891 -55.66430574983976 11.90966929788777
61.75441169157071 -58.46161767033743 2.237001805405395
63.25489537214197 -58.16152093422312 6.441189246666488
67.8786057570854 -57.23677885723447 11.15646717644791
74.19471163168228 -55.9735576823151 12.88237865505481
78.51518213720217 -55.10946358121113 12.10547623948754
61.54814783313816 -58.12787047430297 2.261124245833752
63.06481179935372 -57.82453768105987 6.510647037677222
67.73838141018123 -56.88982375889435 11.27677160097028
74.12259625426174 -55.61298079007827 13.02129423882019
78.48965603482822 -54.73956883396492 12.23601418931768
64.93981543053809 -59.63703687528889 1.726883092382492
66.09813362773995 -59.40537323584852 4.972361121044559
69.66746793428297 -58.69150637453991 8.612382203346826
74.54326929402414 -57.71634610259169 9.944722366932417
77.87851357013118 -57.04929724737028 9.344982285081622
64.52728770796261 -58.96954247398025 1.775127973907033
65.71796647690095 -58.73140672019258 5.111276704988964
69.38701923659244 -57.9975961682543 8.852991055722168
74.39903853718647 -56.99519230813546 10.22255353830904
77.82746136467659 -56.30950774263746 9.606058188355819
63.90849607083523 -57.96830078583297 1.847495302423042
65.14771570155672 -57.72045685968864 5.319650098841824
68.96634615384622 -56.95673076923076 9.213904365351688
74.18269238330736 -55.91346152333853 10.63930033124649
77.75088304990307 -55.19982339001937 9.997672076976254
63.28970443370787 -56.96705909768561 1.919862630939051
64.57746492621251 -56.70950699918472 5.528023492694682
68.54567307109997 -55.91586537020724 9.574817674981208
73.96634622942837 -54.83173073854156 11.05604712418393
77.67430473512965 -54.09013903740129 10.38928596559669
62.87717671113227 -56.29956469637705 1.968107512463592
64.19729777537353 -56.03554048352875 5.666939076639084
68.26522437340947 -55.22195516392158 9.815426527356554
73.82211547259074 -54.11057694408535 11.33387829556055
77.62325252967509 -53.35034953266848 10.65036186887088
67.3001636825112 -59.47746720991834 1.313254147302209
68.18103754309908 -59.30129243780075 3.78136417740182
70.89543268765324 -58.75841340888991 6.549514959401673
74.60336542806112 -58.01682686080831 7.562728449744045
77.13974058697279 -57.50955182902599 7.106640163705356
66.68137209579267 -58.47622560333548 1.385621469922936
67.61078681420933 -58.29034265965213 3.989737554279893
70.4747596391764 -57.71754809465874 6.910428239630002
74.38701929180633 -56.93509616413273 7.979475208731914
77.06316227843759 -56.39986756680651 7.498254020423619
65.75318463581883 -56.97436306418469 1.49417246319782
66.75541064724619 -56.77391786189924 4.302297646501385
69.84375001214551 -56.15624998891936 7.451798206572251
74.06250005949042 -55.31249997945037 8.604595401022484
76.94829480574737 -54.735341030199 8.085674856064724
64.82499717584501 -55.47250052503393 1.602723456472706
65.90003448028301 -55.2574930641463 4.61485773872288
69.21274038511459 -54.59495188318002 7.993168173514507
73.73798082717448 -53.689903794768 9.229715593313063
76.83342733305709 -53.0708144935915 8.673095691705829
64.20620558912644 -54.47125891845107 1.675090779093431
65.32978375139331 -54.24654328599772 4.823231115600947
68.79206733663779 -53.55408656894883 8.354081453742825
73.5216346909197 -52.60817309809246 9.646462352300926
76.75684902452187 -51.96113023137201 9.064709548424096
68.87372904837804 -59.3710874421615 1.037501540984781
69.56964003381105 -59.23190524507486 2.987366283318672
71.71407578609995 -58.80301809461707 5.174270248482528
74.6434295139705 -58.217147349043 5.974732641642494
76.64722530726166 -57.81638819038473 5.614412211235085
68.11742823073394 -58.14734771788128 1.125950489618698
68.87266693046215 -57.99629997793561 3.242044851500022
71.19991984514576 -57.53084939499891 5.615386473709175
74.37900646224264 -56.89503207157954 6.484089784399523
76.55362959813756 -56.46010744440057 6.093051362758482
66.98297690661713 -56.31173797345627 1.258623923989768
67.82720718544829 -56.14289191769004 3.624062736655183
70.42868586732853 -55.62259618131397 6.277060868504403
73.98237185050962 -54.91185898467783 7.248125564301339
76.41323602236662 -54.4256861503064 6.811010151843648
65.8485255825003 -54.4761282290313 1.391297358360837
66.78174744043437 -54.28948385744449 4.006080621810344
69.65745188951131 -53.71434296762911 6.938735263299638
73.58573723877662 -52.92868589777605 8.012161344203156
76.27284244659573 -52.39126485621222 7.528968940928817
65.09222476485623 -53.25238850475109 1.479746306994753
66.08477433708549 -53.0538785903052 4.260759189991692
69.14329594855708 -52.44217426801091 7.379851488526277
73.32131418704878 -51.6065706203126 8.521518486960177
76.1792467374716 -51.03498411022802 8.0076080924522

CELLS 456 2934
1 0
1 1
1 2
1 3
1 4
1 5
2 0 6
2 6 7
2 7 8
2 8 9
2 9 10
2 10 1
2 2 11
2 11 12
2 12 13
2 13 14
2 14 15
2 15 3
2 0 16
2 16 17
2 17 18
2 18 19
2 19 20
2 20 2
2 1 21
2 21 22
2 22 23
2 23 24
2 24 25
2 25 3
2 4 26
2 26 27
2 27 28
2 28 29
2 29 30
2 30 5
2 2 31
2 31 32
2 32 33
2 33 34
2 34 35
2 35 4
2 3 36
2 36 37
2 37 38
2 38 39
2 39 40
2 40 5
2 4 41
2 41 42
2 42 43
2 43 44
2 44 45
2 45 0
2 5 46
2 46 47
2 47 48
2 48 49
2 49 50
2 50 1
4 0 16 51 6
4 16 17 52 51
4 17 18 53 52
4 18 19 54 53
4 19 20 55 54
4 20 2 11 55
4 6 51 56 7
4 51 52 57 56
4 52 53 58 57
4 53 54 59 58
4 54 55 60 59
4 55 11 12 60
4 7 56 61 8
4 56 57 62 61
4 57 58 63 62
4 58 59 64 63
4 59 60 65 64
4 60 12 13 65
4 8 61 66 9
4 61 62 67 66
4 62 63 68 67
4 63 64 69 68
4 64 65 70 69
4 65 13 14 70
4 9 66 71 10
4 66 67 72 71
4 67 68 73 72
4 68 69 74 73
4 69 70 75 74
4 70 14 15 75
4 10 71 21 1
4 71 72 22 21
4 72 73 23 22
4 73 74 24 23
4 74 75 25 24
4 75 15 3 25
4 2 31 76 11
4 31 32 77 76
4 32 33 78 77
4 33 34 79 78
4 34 35 80 79
4 35 4 26 80
4 11 76 81 12
4 76 77 82 81
4 77 78 83 82
4 78 79 84 83
4 79 80 85 84
4 80 26 27 85
4 12 81 86 13
4 81 82 87 86
4 82 83 88 87
4 83 84 89 88
4 84 85 90 89
4 85 27 28 90
4 13 86 91 14
4 86 87 92 91
4 87 88 93 92
4 88 89 94 93
4 89 90 95 94
4 90 28 29 95
4 14 91 96 15
4 91 92 97 96
4 92 93 98 97
4 93 94 99 98
4 94 95 100 99
4 95 29 30 100
4 15 96 36 3
4 96 97 37 36
4 97 98 38 37
4 98 99 39 38
4 99 100 40 39
4 100 30 5 40
4 4 41 101 26
4 41 42 102 101
4 42 43 103 102
4 43 44 104 103
4 44 45 105 104
4 45 0 6 105
4 26 101 106 27
4 101 102 107 106
4 102 103 108 107
4 103 104 109 108
4 104 105 110 109
4 105 6 7 110
4 27 106 111 28
4 106 107 112 111
4 107 108 113 112
4 108 109 114 113
4 109 110 115 114
4 110 7 8 115
4 28 111 116 29
4 111 112 117 116
4 112 113 118 117
4 113 114 119 118
4 114 115 120 119
4 115 8 9 120
4 29 116 121 30
4 116 117 122 121
4 117 118 123 122
4 118 119 124 123
4 119 120 125 124
4 120 9 10 125
4 30 121 46 5
4 121 122 47 46
4 122 123 48 47
4 123 124 49 48
4 124 125 50 49
4 125 10 1 50
3 0 126 16
3 0 127 126
3 0 128 127
3 0 129 128
3 0 130 129
3 0 45 130
4 16 126 131 17
4 126 127 132 131
4 127 128 133 132
4 128 129 134 133
4 129 130 135 134
4 130 45 44 135
4 17 131 136 18
4 131 132 137 136
4 132 133 138 137
4 133 134 139 138
4 134 135 140 139
4 135 44 43 140
4 18 136 141 19
4 136 137 142 141
4 137 138 143 142
4 138 139 144 143
4 139 140 145 144
4 140 43 42 145
4 19 141 146 20
4 141 142 147 146
4 142 143 148 147
4 143 144 149 148
4 144 145 150 149
4 145 42 41 150
4 20 146 31 2
4 146 147 32 31
4 147 148 33 32
4 148 149 34 33
4 149 150 35 34
4 150 41 4 35
3 1 21 151
3 1 151 152
3 1 152 153
3 1 153 154
3 1 154 155
3 1 155 50
4 21 22 156 151
4 151 156 157 152
4 152 157 158 153
4 153 158 159 154
4 154 159 160 155
4 155 160 49 50
4 22 23 161 156
4 156 161 162 157
4 157 162 163 158
4 158 163 164 159
4 159 164 165 160
4 160 165 48 49
4 23 24 166 161
4 161 166 167 162
4 162 167 168 163
4 163 168 169 164
4 164 169 170 165
4 165 170 47 48
4 24 25 171 166
4 166 171 172 167
4 167 172 173 168
4 168 173 174 169
4 169 174 175 170
4 170 175 46 47
4 25 3 36 171
4 171 36 37 172
4 172 37 38 173
4 173 38 39 174
4 174 39 40 175
4 175 40 5 46
8 16 17 131 126 51 52 201 176
8 51 52 201 176 56 57 202 177
8 56 57 202 177 61 62 203 178
8 61 62 203 178 66 67 204 179
8 66 67 204 179 71 72 205 180
8 71 72 205 180 21 22 156 151
8 126 131 132 127 176 201 206 181
8 176 201 206 181 177 202 207 182
8 177 202 207 182 178 203 208 183
8 178 203 208 183 179 204 209 184
8 179 204 209 184 180 205 210 185
8 180 205 210 185 151 156 157 152
8 127 132 133 128 181 206 211 186
8 181 206 211 186 182 207 212 187
8 182 207 212 187 183 208 213 188
8 183 208 213 188 184 209 214 189
8 184 209 214 189 185 210 215 190
8 185 210 215 190 152 157 158 153
8 128 133 134 129 186 211 216 191
8 186 211 216 191 187 212 217 192
8 187 212 217 192 188 213 218 193
8 188 213 218 193 189 214 219 194
8 189 214 219 194 190 215 220 195
8 190 215 220 195 153 158 159 154
8 129 134 135 130 191 216 221 196
8 191 216 221 196 192 217 222 197
8 192 217 222 197 193 218 223 198
8 193 218 223 198 194 219 224 199
8 194 219 224 199 195 220 225 200
8 195 220 225 200 154 159 160 155
8 130 135 44 45 196 221 104 105
8 196 221 104 105 197 222 109 110
8 197 222 109 110 198 223 114 115
8 198 223 114 115 199 224 119 120
8 199 224 119 120 200 225 124 125
8 200 225 124 125 155 160 49 50
8 17 18 136 131 52 53 226 201
8 52 53 226 201 57 58 227 202
8 57 58 227 202 62 63 228 203
8 62 63 228 203 67 68 229 204
8 67 68 229 204 72 73 230 205
8 72 73 230 205 22 23 161 156
8 131 136 137 132 201 226 231 206
8 201 226 231 206 202 227 232 207
8 202 227 232 207 203 228 233 208
8 203 228 233 208 204 229 234 209
8 204 229 234 209 205 230 235 210
8 205 230 235 210 156 161 162 157
8 132 137 138 133 206 231 236 211
8 206 231 236 211 207 232 237 212
8 207 232 237 212 208 233 238 213
8 208 233 238 213 209 234 239 214
8 209 234 239 214 210 235 240 215
8 210 235 240 215 157 162 163 158
8 133 138 139 134 211 236 241 216
8 211 236 241 216 212 237 242 217
8 212 237 242 217 213 238 243 218
8 213 238 243 218 214 239 244 219
8 214 239 244 219 215 240 245 220
8 215 240 245 220 158 163 164 159
8 134 139 140 135 216 241 246 221
8 216 241 246 221 217 242 247 222
8 217 242 247 222 218 243 248 223
8 218 243 248 223 219 244 249 224
8 219 244 249 224 220 245 250 225
8 220 245 250 225 159 164 165 160
8 135 140 43 44 221 246 103 104
8 221 246 103 104 222 247 108 109
8 222 247 108 109 223 248 113 114
8 223 248 113 114 224 249 118 119
8 224 249 118 119 225 250 123 124
8 225 250 123 124 160 165 48 49
8 18 19 141 136 53 54 251 226
8 53 54 251 226 58 59 252 227
8 58 59 252 227 63 64 253 228
8 63 64 253 228 68 69 254 229
8 68 69 254 229 73 74 255 230
8 73 74 255 230 23 24 166 161
8 136 141 142 137 226 251 256 231
8 226 251 256 231 227 252 257 232
8 227 252 257 232 228 253 258 233
8 228 253 258 233 229 254 259 234
8 229 254 259 234 230 255 260 235
8 230 255 260 235 161 166 167 162
8 137 142 143 138 231 256 261 236
8 231 256 261 236 232 257 262 237
8 232 257 262 237 233 258 263 238
8 233 258 263 238 234 259 264 239
8 234 259 264 239 235 260 265 240
8 235 260 265 240 162 167 168 163
8 138 143 144 139 236 261 266 241
8 236 261 266 241 237 262 267 242
8 237 262 267 242 238 263 268 243
8 238 263 268 243 239 264 269 244
8 239 264 269 244 240 265 270 245
8 240 265 270 245 163 168 169 164
8 139 144 145 140 241 266 271 246
8 241 266 271 246 242 267 272 247
8 242 267 272 247 243 268 273 248
8 243 268 273 248 244 269 274 249
8 244 269 274 249 245 270 275 250
8 245 270 275 250 164 169 170 165
8 140 145 42 43 246 271 102 103
8 246 271 102 103 247 272 107 108
8 247 272 107 108 248 273 112 113
8 248 273 112 113 249 274 117 118
8 249 274 117 118 250 275 122 123
8 250 275 122 123 165 170 47 48
8 19 20 146 141 54 55 276 251
8 54 55 276 251 59 60 277 252
8 59 60 277 252 64 65 278 253
8 64 65 278 253 69 70 279 254
8 69 70 279 254 74 75 280 255
8 74 75 280 255 24 25 171 166
8 141 146 147 142 251 276 281 256
8 251 276 281 256 252 277 282 257
8 252 277 282 257 253 278 283 258
8 253 278 283 258 254 279 284 259
8 254 279 284 259 255 280 285 260
8 255 280 285 260 166 171 172 167
8 142 147 148 143 256 281 286 261
8 256 281 286 261 257 282 287 262
8 257 282 287 262 258 283 288 263
8 258 283 288 263 259 284 289 264
8 259 284 289 264 260 285 290 265
8 260 285 290 265 167 172 173 168
8 143 148 149 144 261 286 291 266
8 261 286 291 266 262 287 292 267
8 262 287 292 267 263 288 293 268
8 263 288 293 268 264 289 294 269
8 264 289 294 269 265 290 295 270
8 265 290 295 270 168 173 174 169
8 144 149 150 145 266 291 296 271
8 266 291 296 271 267 292 297 272
8 267 292 297 272 268 293 298 273
8 268 293 298 273 269 294 299 274
8 269 294 299 274 270 295 300 275
8 270 295 300 275 169 174 175 170
8 145 150 41 42 271 296 101 102
8 271 296 101 102 272 297 106 107
8 272 297 106 107 273 298 111 112
8 273 298 111 112 274 299 116 117
8 274 299 116 117 275 300 121 122
8 275 300 121 122 170 175 46 47
8 20 2 31 146 55 11 76 276
8 55 11 76 276 60 12 81 277
8 60 12 81 277 65 13 86 278
8 65 13 86 278 70 14 91 279
8 70 14 91 279 75 15 96 280
8 75 15 96 280 25 3 36 171
8 146 31 32 147 276 76 77 281
8 276 76 77 281 277 81 82 282
8 277 81 82 282 278 86 87 283
8 278 86 87 283 279 91 92 284
8 279 91 92 284 280 96 97 285
8 280 96 97 285 171 36 37 172
8 147 32 33 148 281 77 78 286
8 281 77 78 286 282 82 83 287
8 282 82 83 287 283 87 88 288
8 283 87 88 288 284 92 93 289
8 284 92 93 289 285 97 98 290
8 285 97 98 290 172 37 38 173
8 148 33 34 149 286 78 79 291
8 286 78 79 291 287 83 84 292
8 287 83 84 292 288 88 89 293
8 288 88 89 293 289 93 94 294
8 289 93 94 294 290 98 99 295
8 290 98 99 295 173 38 39 174
8 149 34 35 150 291 79 80 296
8 291 79 80 296 292 84 85 297
8 292 84 85 297 293 89 90 298
8 293 89 90 298 294 94 95 299
8 294 94 95 299 295 99 100 300
8 295 99 100 300 174 39 40 175
8 150 35 4 41 296 80 26 101
8 296 80 26 101 297 85 27 106
8 297 85 27 106 298 90 28 111
8 298 90 28 111 299 95 29 116
8 299 95 29 116 300 100 30 121
8 300 100 30 121 175 40 5 46
6 0 126 16 6 176 51
6 6 176 51 7 177 56
6 7 177 56 8 178 61
6 8 178 61 9 179 66
6 9 179 66 10 180 71
6 10 180 71 1 151 21
6 0 127 126 6 181 176
6 6 181 176 7 182 177
6 7 182 177 8 183 178
6 8 183 178 9 184 179
6 9 184 179 10 185 180
6 10 185 180 1 152 151
6 0 128 127 6 186 181
6 6 186 181 7 187 182
6 7 187 182 8 188 183
6 8 188 183 9 189 184
6 9 189 184 10 190 185
6 10 190 185 1 153 152
6 0 129 128 6 191 186
6 6 191 186 7 192 187
6 7 192 187 8 193 188
6 8 193 188 9 194 189
6 9 194 189 10 195 190
6 10 195 190 1 154 153
6 0 130 129 6 196 191
6 6 196 191 7 197 192
6 7 197 192 8 198 193
6 8 198 193 9 199 194
6 9 199 194 10 200 195
6 10 200 195 1 155 154
6 0 45 130 6 105 196
6 6 105 196 7 110 197
6 7 110 197 8 115 198
6 8 115 198 9 120 199
6 9 120 199 10 125 200
6 10 125 200 1 50 155

CELL_TYPES 456
1
1
1
1
1
1
3
3
3
3
3
3
3
3
3
3
3
3
3
3
3
3
3
3
3
3
3
3
3
3
3
3
3
3
3
3
3
3
3
3
3
3
3
3
3
3
3
3
3
3
3
3
3
3
3
3
3
3
3
3
9
9
9
9
9
9
9
9
9
9
9
9
9
9
9
9
9
9
9
9
9
9
9
9
9
9
9
9
9
9
9
9
9
9
9
9
9
9
9
9
9
9
9
9
9
9
9
9
9
9
9
9
9
9
9
9
9
9
9
9
9
9
9
9
9
9
9
9
9
9
9
9
9
9
9
9
9
9
9
9
9
9
9
9
9
9
9
9
9
9
9
9
9
9
9
9
9
9
9
9
9
9
9
9
9
9
9
9
5
5
5
5
5
5
9
9
9
9
9
9
9
9
9
9
9
9
9
9
9
9
9
9
9
9
9
9
9
9
9
9
9
9
9
9
5
5
5
5
5
5
9
9
9
9
9
9
9
9
9
9
9
9
9
9
9
9
9
9
9
9
9
9
9
9
9
9
9
9
9
9
12
12
12
12
12
12
12
12
12
12
12
12
12
12
12
12
12
12
12
12
12
12
12
12
12
12
12
12
12
12
12
12
12
12
12
12
12
12
12
12
12
12
12
12
12
12
12
12
12
12
12
12
12
12
12
12
12
12
12
12
12
12
12
12
12
12
12
12
12
12
12
12
12
12
12
12
12
12
12
12
12
12
12
12
12
12
12
12
12
12
12
12
12
12
12
12
12
12
12
12
12
12
12
12
12
12
12
12
12
12
12
12
12
12
12
12
12
12
12
12
12
12
12
12
12
12
12
12
12
12
12
12
12
12
12
12
12
12
12
12
12
12
12
12
12
12
12
12
12
12
12
12
12
12
12
12
12
12
12
12
12
12
12
12
12
12
12
12
12
12
12
12
12
12
12
12
12
12
12
12
13
13
13
13
13
13
13
13
13
13
13
13
13
13
13
13
13
13
13
13
13
13
13
13
13
13
13
13
13
13
13
13
13
13
13
13

CELL_DATA 456
SCALARS CellEntityIds int 1
LOOKUP_TABLE default
-1
-1
-1
-1
-1
-1
1
1
1
1
1
1
2
2
2
2
2
2
3
3
3
3
3
3
4
4
4
4
4
4
5
5
5
5
5
5
6
6
6
6
6
6
7
7
7
7
7
7
8
8
8
8
8
8
9
9
9
9
9
9
10
10
10
10
10
10
10
10
10
10
10
10
10
10
10
10
10
10
10
10
10
10
10
10
10
10
10
10
10
10
10
10
10
10
10
10
11
11
11
11
11
11
11
11
11
11
11
11
11
11
11
11
11
11
11
11
11
11
11
11
11
11
11
11
11
11
11
11
11
11
11
11
12
12
12
12
12
12
12
12
12
12
12
12
12
12
12
12
12
12
12
12
12
12
12
12
12
12
12
12
12
12
12
12
12
12
12
12
13
13
13
13
13
13
13
13
13
13
13
13
13
13
13
13
13
13
13
13
13
13
13
13
13
13
13
13
13
13
13
13
13
13
13
13
14
14
14
14
14
14
14
14
14
14
14
14
14
14
14
14
14
14
14
14
14
14
14
14
14
14
14
14
14
14
14
14
14
14
14
14
15
15
15
15
15
15
15
15
15
15
15
15
15
15
15
15
15
15
15
15
15
15
15
15
15
15
15
15
15
15
15
15
15
15
15
15
15
15
15
15
15
15
15
15
15
15
15
15
15
15
15
15
15
15
15
15
15
15
15
15
15
15
15
15
15
15
15
15
15
15
15
15
15
15
15
15
15
15
15
15
15
15
15
15
15
15
15
15
15
15
15
15
15
15
15
15
15
15
15
15
15
15
15
15
15
15
15
15
15
15
15
15
15
15
15
15
15
15
15
15
15
15
15
15
15
15
15
15
15
15
15
15
15
15
15
15
15
15
15
15
15
15
15
15
15
15
15
15
15
15
15
15
15
15
15
15
15
15
15
15
15
15
15
15
15
15
15
15
15
15
15
15
15
15
15
15
15
15
15
15
15
15
15
15
15
15
15
15
15
15
15
15
15
15
15
15
15
15
15
15
15
15
15
15
15
15
15
15
15
15
15
15
15
15
15
15
