# vtk DataFile Version 2.0
shape2mesh, Created by Gmsh 4.13.1
ASCII
DATASET UNSTRUCTURED_GRID
POINTS 301 double
45 -60 0
47 -60 10
55 -60 0
57 -60 10
50 -52 0
52 -52 10
45.16666668382377 -60 0.8333334191188545
45.49999999307877 -60 2.499999965393862
46.00000000000001 -60 5.000000000000044
46.50000000692125 -60 7.500000034606231
46.83333331617624 -60 9.166666580881193
55.16666668382377 -60 0.8333334191188545
55.49999999307877 -60 2.499999965393862
56.00000000000001 -60 5.000000000000044
56.50000000692125 -60 7.500000034606231
56.83333331617624 -60 9.166666580881193
45.83333341911885 -60 0
47.49999996539384 -60 0
50 -60 0
52.50000003460617 -60 0
54.16666658088115 -60 0
47.83333341911885 -60 10
49.49999996539384 -60 10
52 -60 10
54.50000003460617 -60 10
56.16666658088115 -60 10
50.16666668382377 -52 0.8333334191188545
50.49999999307877 -52 2.499999965393862
51.00000000000001 -52 5.000000000000044
51.50000000692125 -52 7.500000034606231
51.83333331617624 -52 9.166666580881193
54.58333329044058 -59.33333326470492 0
53.75000001730308 -58.00000002768493 0
52.5 -55.99999999999999 0
51.24999998269691 -53.99999997231505 0
50.41666670955942 -52.66666673529508 0
56.58333329044058 -59.33333326470492 10
55.75000001730308 -58.00000002768493 10
54.5 -55.99999999999999 10
53.24999998269691 -53.99999997231505 10
52.41666670955942 -52.66666673529508 10
49.58333329044058 -52.66666673529508 0
48.75000001730308 -53.99999997231507 0
47.5 -56.00000000000001 0
46.24999998269691 -58.00000002768495 0
45.41666670955942 -59.33333326470492 0
51.58333329044058 -52.66666673529508 10
50.75000001730308 -53.99999997231507 10
49.5 -56.00000000000001 10
48.24999998269691 -58.00000002768495 10
47.41666670955942 -59.33333326470492 10
46.00000010294262 -60 0.8333334191188519
47.66666664921761 -60 0.8333334191188522
50.16666668382377 -60 0.8333334191188521
52.66666671842995 -60 0.8333334191188519
54.33333326470492 -60 0.8333334191188519
46.33333341219762 -60 2.499999965393855
47.99999995847261 -60 2.499999965393854
50.49999999307877 -60 2.499999965393854
53.00000002768495 -60 2.499999965393854
54.66666657395992 -60 2.499999965393854
46.83333341911885 -60 5.000000000000029
48.49999996539385 -60 5.000000000000029
51.00000000000001 -60 5.000000000000029
53.50000003460619 -60 5.000000000000029
55.16666658088116 -60 5.000000000000029
47.33333342604009 -60 7.500000034606208
48.99999997231508 -60 7.500000034606208
51.50000000692124 -60 7.500000034606208
54.00000004152742 -60 7.500000034606208
55.6666665878024 -60 7.500000034606208
47.66666673529508 -60 9.166666580881166
49.33333328157007 -60 9.166666580881163
51.83333331617623 -60 9.166666580881163
54.33333335078241 -60 9.166666580881166
55.99999989705739 -60 9.166666580881163
54.74999997426435 -59.33333326470492 0.8333334191188522
53.91666670112686 -58.00000002768493 0.8333334191188522
52.66666668382377 -55.99999999999999 0.8333334191188522
51.41666666652068 -53.99999997231505 0.8333334191188519
50.5833333933832 -52.66666673529509 0.8333334191188518
55.08333328351934 -59.33333326470492 2.499999965393855
54.25000001038185 -58.00000002768493 2.499999965393855
52.99999999307877 -55.99999999999999 2.499999965393855
51.74999997577568 -53.99999997231505 2.499999965393855
50.9166667026382 -52.66666673529508 2.499999965393855
55.58333329044058 -59.33333326470492 5.000000000000033
54.75000001730309 -58.00000002768493 5.00000000000003
53.5 -55.99999999999999 5.00000000000003
52.24999998269691 -53.99999997231505 5.000000000000032
51.41666670955943 -52.66666673529508 5.000000000000032
56.08333329736182 -59.33333326470492 7.500000034606209
55.25000002422433 -58.00000002768493 7.50000003460621
54.00000000692124 -55.99999999999999 7.500000034606209
52.74999998961815 -53.99999997231505 7.500000034606209
51.91666671648066 -52.66666673529508 7.500000034606209
56.41666660661681 -59.33333326470492 9.166666580881166
55.58333333347932 -58.00000002768493 9.16666658088117
54.33333331617623 -56 9.16666658088117
53.08333329887314 -53.99999997231505 9.16666658088117
52.25000002573566 -52.66666673529508 9.16666658088117
49.74999997426435 -52.66666673529508 0.8333334191188522
48.91666670112686 -53.99999997231507 0.8333334191188522
47.66666668382377 -56.00000000000001 0.8333334191188522
46.41666666652068 -58.00000002768495 0.8333334191188519
45.5833333933832 -59.33333326470491 0.8333334191188518
50.08333328351934 -52.66666673529508 2.499999965393855
49.25000001038185 -53.99999997231507 2.499999965393855
47.99999999307877 -56.00000000000001 2.499999965393855
46.74999997577568 -58.00000002768495 2.499999965393855
45.9166667026382 -59.33333326470492 2.499999965393855
50.58333329044058 -52.66666673529508 5.000000000000033
49.75000001730309 -53.99999997231507 5.00000000000003
48.5 -56.00000000000001 5.00000000000003
47.24999998269691 -58.00000002768495 5.000000000000032
46.41666670955943 -59.33333326470492 5.000000000000032
51.08333329736182 -52.66666673529508 7.500000034606209
50.25000002422433 -53.99999997231507 7.50000003460621
49.00000000692124 -56.00000000000001 7.500000034606209
47.74999998961815 -58.00000002768495 7.500000034606209
46.91666671648066 -59.33333326470492 7.500000034606209
51.41666660661681 -52.66666673529508 9.166666580881166
50.58333333347932 -53.99999997231507 9.16666658088117
49.33333331617623 -56 9.16666658088117
48.08333329887314 -58.00000002768495 9.16666658088117
47.25000002573566 -59.33333326470492 9.16666658088117
45.79861118974783 -59.94444443300637 0
45.72916674317091 -59.83333331848331 0
45.62500006433913 -59.66666663235246 0
45.52083338550736 -59.49999994622161 0
45.45138893893044 -59.38888883169854 0
47.3958332894459 -59.83333331848331 0
47.18749997404538 -59.50000001384247 0
46.87499997404537 -59.00000001384247 0
46.56249997404537 -58.50000001384247 0
46.35416665864484 -58.16666670920164 0
49.79166664522029 -59.66666663235246 0
49.37500000865154 -59.00000001384247 0
48.74999999999999 -58 0
48.12499999134845 -56.99999998615753 0
47.70833335477971 -56.33333336764754 0
52.18750000099468 -59.49999994622161 0
51.56250004325771 -58.50000001384247 0
50.62500002595463 -56.99999998615753 0
49.68750000865153 -55.49999995847259 0
49.06250005091458 -54.50000002609345 0
53.78472210069274 -59.38888883169854 0
53.02083327413217 -58.16666670920162 0
51.87499993566086 -56.33333336764753 0
50.72916659718955 -54.50000002609344 0
49.96527777062899 -53.27777790359654 0
47.79861118974783 -59.94444443300637 10
47.72916674317091 -59.83333331848331 10
47.62500006433913 -59.66666663235246 10
47.52083338550736 -59.49999994622161 10
47.45138893893044 -59.38888883169854 10
49.3958332894459 -59.83333331848331 10
49.18749997404538 -59.50000001384247 10
48.87499997404537 -59.00000001384247 10
48.56249997404537 -58.50000001384247 10
48.35416665864484 -58.16666670920164 10
51.79166664522029 -59.66666663235246 10
51.37500000865154 -59.00000001384247 10
50.74999999999999 -58 10
50.12499999134845 -56.99999998615753 10
49.70833335477971 -56.33333336764754 10
54.18750000099468 -59.49999994622161 10
53.56250004325771 -58.50000001384247 10
52.62500002595463 -56.99999998615753 10
51.68750000865153 -55.49999995847259 10
51.06250005091458 -54.50000002609345 10
55.78472210069274 -59.38888883169854 10
55.02083327413217 -58.16666670920162 10
53.87499993566086 -56.33333336764753 10
52.72916659718955 -54.50000002609344 10
51.96527777062899 -53.27777790359654 10
45.96527787357162 -59.94444443300639 0.8333334191188515
46.29861118282659 -59.94444443300639 2.499999965393854
46.79861118974785 -59.94444443300637 5.000000000000028
47.29861119666905 -59.94444443300636 7.500000034606206
47.63194450592404 -59.9444444330064 9.166666580881163
45.89583342699471 -59.83333331848328 0.8333334191188521
46.2291667362497 -59.83333331848331 2.499999965393854
46.72916674317093 -59.83333331848331 5.00000000000003
47.22916675009215 -59.83333331848332 7.500000034606209
47.56250005934712 -59.8333333184833 9.166666580881159
45.79166674816291 -59.66666663235246 0.8333334191188514
46.12500005741792 -59.66666663235245 2.499999965393854
46.62500006433916 -59.66666663235246 5.00000000000003
47.12500007126036 -59.66666663235246 7.500000034606209
47.45833338051536 -59.66666663235246 9.16666658088117
45.68750006933115 -59.4999999462216 0.8333334191188515
46.02083337858615 -59.49999994622161 2.499999965393854
46.52083338550736 -59.49999994622161 5.00000000000003
47.02083339242861 -59.49999994622162 7.500000034606211
47.35416670168359 -59.49999994622161 9.166666580881166
45.61805562275423 -59.38888883169854 0.8333334191188516
45.95138893200918 -59.38888883169854 2.499999965393854
46.45138893893045 -59.38888883169856 5.00000000000003
46.95138894585166 -59.38888883169854 7.500000034606206
47.28472225510667 -59.38888883169853 9.166666580881166
47.56249997326969 -59.83333331848333 0.8333334191188514
47.89583328252467 -59.83333331848331 2.499999965393852
48.39583328944589 -59.83333331848331 5.000000000000027
48.89583329636714 -59.83333331848331 7.500000034606202
49.22916660562214 -59.83333331848333 9.166666580881158
47.35416665786916 -59.50000001384248 0.8333334191188517
47.68749996712413 -59.50000001384248 2.499999965393852
48.18749997404539 -59.50000001384247 5.000000000000027
48.68749998096662 -59.50000001384245 7.500000034606202
49.0208332902216 -59.50000001384245 9.166666580881158
47.04166665786915 -59.00000001384246 0.8333334191188517
47.37499996712413 -59.00000001384249 2.499999965393852
47.87499997404537 -59.00000001384248 5.000000000000028
48.37499998096659 -59.00000001384244 7.500000034606202
48.70833329022163 -59.00000001384248 9.166666580881163
46.72916665786915 -58.5000000138425 0.8333334191188516
47.06249996712415 -58.50000001384248 2.499999965393851
47.56249997404537 -58.50000001384248 5.000000000000028
48.06249998096659 -58.50000001384248 7.500000034606202
48.39583329022161 -58.5000000138425 9.166666580881163
46.52083334246863 -58.16666670920163 0.8333334191188516
46.85416665172358 -58.16666670920164 2.499999965393854
47.35416665864484 -58.16666670920164 5.00000000000003
47.85416666556605 -58.16666670920163 7.500000034606206
48.18749997482109 -58.16666670920164 9.166666580881159
49.95833332904405 -59.66666663235245 0.8333334191188506
50.29166663829903 -59.66666663235245 2.49999996539385
50.7916666452203 -59.66666663235245 5.000000000000026
51.29166665214153 -59.66666663235244 7.500000034606195
51.62499996139652 -59.66666663235245 9.166666580881149
49.54166669247532 -59.00000001384246 0.8333334191188513
49.87500000173028 -59.00000001384247 2.49999996539385
50.37500000865155 -59.00000001384248 5.000000000000023
50.87500001557277 -59.00000001384245 7.500000034606195
51.20833332482777 -59.00000001384248 9.166666580881149
48.91666668382379 -57.99999999999999 0.8333334191188507
49.24999999307875 -58 2.49999996539385
49.74999999999999 -58 5.000000000000023
50.25000000692122 -58.00000000000001 7.5000000346062
50.58333331617621 -58 9.166666580881158
48.29166667517219 -56.99999998615756 0.8333334191188511
48.6249999844272 -56.99999998615753 2.49999996539385
49.12499999134846 -56.99999998615753 5.000000000000023
49.62499999826971 -56.99999998615754 7.500000034606199
49.95833330752465 -56.99999998615753 9.166666580881156
47.87500003860352 -56.33333336764754 0.8333334191188507
48.20833334785849 -56.33333336764755 2.499999965393853
48.70833335477972 -56.33333336764755 5.000000000000023
49.20833336170095 -56.33333336764755 7.500000034606195
49.54166667095595 -56.33333336764755 9.166666580881156
52.35416668481847 -59.49999994622161 0.8333334191188503
52.68749999407346 -59.49999994622162 2.499999965393849
53.18750000099467 -59.49999994622164 5.000000000000021
53.68750000791593 -59.49999994622163 7.500000034606192
54.02083331717093 -59.49999994622164 9.16666658088115
51.72916672708151 -58.50000001384247 0.8333334191188503
52.06250003633644 -58.5000000138425 2.49999996539385
52.56250004325771 -58.50000001384247 5.00000000000002
53.06250005017899 -58.50000001384247 7.500000034606195
53.39583335943396 -58.50000001384247 9.166666580881149
50.79166670977841 -56.99999998615752 0.8333334191188502
51.12500001903338 -56.99999998615753 2.49999996539385
51.62500002595466 -56.99999998615755 5.000000000000019
52.12500003287587 -56.99999998615753 7.500000034606193
52.45833334213089 -56.99999998615755 9.16666658088115
49.85416669247531 -55.49999995847257 0.8333334191188502
50.18750000173032 -55.49999995847255 2.49999996539385
50.68750000865154 -55.49999995847259 5.000000000000021
51.1875000155728 -55.49999995847259 7.500000034606195
51.52083332482778 -55.49999995847258 9.166666580881149
49.22916673473836 -54.50000002609348 0.8333334191188502
49.56250004399338 -54.50000002609342 2.49999996539385
50.06250005091459 -54.50000002609342 5.000000000000021
50.56250005783582 -54.50000002609345 7.500000034606195
50.89583336709084 -54.50000002609346 9.166666580881147
53.95138878451652 -59.38888883169854 0.8333334191188497
54.28472209377152 -59.38888883169852 2.499999965393849
54.78472210069272 -59.38888883169855 5.000000000000018
55.28472210761399 -59.38888883169857 7.500000034606188
55.618055416869 -59.38888883169853 9.166666580881142
53.18749995795594 -58.16666670920161 0.8333334191188498
53.52083326721093 -58.16666670920161 2.499999965393849
54.02083327413217 -58.16666670920161 5.000000000000015
54.52083328105343 -58.16666670920162 7.500000034606187
54.85416659030842 -58.1666667092016 9.16666658088114
52.04166661948464 -56.33333336764752 0.8333334191188497
52.37499992873965 -56.33333336764757 2.499999965393849
52.87499993566084 -56.33333336764752 5.000000000000017
53.37499994258209 -56.33333336764753 7.500000034606188
53.70833325183707 -56.33333336764756 9.166666580881142
50.8958332810133 -54.50000002609343 0.8333334191188497
51.2291665902683 -54.50000002609344 2.499999965393848
51.72916659718954 -54.50000002609343 5.00000000000002
52.22916660411079 -54.50000002609344 7.50000003460619
52.56249991336576 -54.50000002609343 9.166666580881142
50.13194445445274 -53.27777790359654 0.8333334191188498
50.46527776370775 -53.27777790359652 2.499999965393849
50.96527777062899 -53.27777790359653 5.000000000000022
51.46527777755022 -53.27777790359652 7.500000034606188
51.79861108680522 -53.27777790359656 9.166666580881147

CELLS 456 2934
1 0
1 1
1 2
1 3
1 4
1 5
2 0 6
2 6 7
2 7 8
2 8 9
2 9 10
2 10 1
2 2 11
2 11 12
2 12 13
2 13 14
2 14 15
2 15 3
2 0 16
2 16 17
2 17 18
2 18 19
2 19 20
2 20 2
2 1 21
2 21 22
2 22 23
2 23 24
2 24 25
2 25 3
2 4 26
2 26 27
2 27 28
2 28 29
2 29 30
2 30 5
2 2 31
2 31 32
2 32 33
2 33 34
2 34 35
2 35 4
2 3 36
2 36 37
2 37 38
2 38 39
2 39 40
2 40 5
2 4 41
2 41 42
2 42 43
2 43 44
2 44 45
2 45 0
2 5 46
2 46 47
2 47 48
2 48 49
2 49 50
2 50 1
4 0 16 51 6
4 16 17 52 51
4 17 18 53 52
4 18 19 54 53
4 19 20 55 54
4 20 2 11 55
4 6 51 56 7
4 51 52 57 56
4 52 53 58 57
4 53 54 59 58
4 54 55 60 59
4 55 11 12 60
4 7 56 61 8
4 56 57 62 61
4 57 58 63 62
4 58 59 64 63
4 59 60 65 64
4 60 12 13 65
4 8 61 66 9
4 61 62 67 66
4 62 63 68 67
4 63 64 69 68
4 64 65 70 69
4 65 13 14 70
4 9 66 71 10
4 66 67 72 71
4 67 68 73 72
4 68 69 74 73
4 69 70 75 74
4 70 14 15 75
4 10 71 21 1
4 71 72 22 21
4 72 73 23 22
4 73 74 24 23
4 74 75 25 24
4 75 15 3 25
4 2 31 76 11
4 31 32 77 76
4 32 33 78 77
4 33 34 79 78
4 34 35 80 79
4 35 4 26 80
4 11 76 81 12
4 76 77 82 81
4 77 78 83 82
4 78 79 84 83
4 79 80 85 84
4 80 26 27 85
4 12 81 86 13
4 81 82 87 86
4 82 83 88 87
4 83 84 89 88
4 84 85 90 89
4 85 27 28 90
4 13 86 91 14
4 86 87 92 91
4 87 88 93 92
4 88 89 94 93
4 89 90 95 94
4 90 28 29 95
4 14 91 96 15
4 91 92 97 96
4 92 93 98 97
4 93 94 99 98
4 94 95 100 99
4 95 29 30 100
4 15 96 36 3
4 96 97 37 36
4 97 98 38 37
4 98 99 39 38
4 99 100 40 39
4 100 30 5 40
4 4 41 101 26
4 41 42 102 101
4 42 43 103 102
4 43 44 104 103
4 44 45 105 104
4 45 0 6 105
4 26 101 106 27
4 101 102 107 106
4 102 103 108 107
4 103 104 109 108
4 104 105 110 109
4 105 6 7 110
4 27 106 111 28
4 106 107 112 111
4 107 108 113 112
4 108 109 114 113
4 109 110 115 114
4 110 7 8 115
4 28 111 116 29
4 111 112 117 116
4 112 113 118 117
4 113 114 119 118
4 114 115 120 119
4 115 8 9 120
4 29 116 121 30
4 116 117 122 121
4 117 118 123 122
4 118 119 124 123
4 119 120 125 124
4 120 9 10 125
4 30 121 46 5
4 121 122 47 46
4 122 123 48 47
4 123 124 49 48
4 124 125 50 49
4 125 10 1 50
3 0 126 16
3 0 127 126
3 0 128 127
3 0 129 128
3 0 130 129
3 0 45 130
4 16 126 131 17
4 126 127 132 131
4 127 128 133 132
4 128 129 134 133
4 129 130 135 134
4 130 45 44 135
4 17 131 136 18
4 131 132 137 136
4 132 133 138 137
4 133 134 139 138
4 134 135 140 139
4 135 44 43 140
4 18 136 141 19
4 136 137 142 141
4 137 138 143 142
4 138 139 144 143
4 139 140 145 144
4 140 43 42 145
4 19 141 146 20
4 141 142 147 146
4 142 143 148 147
4 143 144 149 148
4 144 145 150 149
4 145 42 41 150
4 20 146 31 2
4 146 147 32 31
4 147 148 33 32
4 148 149 34 33
4 149 150 35 34
4 150 41 4 35
3 1 21 151
3 1 151 152
3 1 152 153
3 1 153 154
3 1 154 155
3 1 155 50
4 21 22 156 151
4 151 156 157 152
4 152 157 158 153
4 153 158 159 154
4 154 159 160 155
4 155 160 49 50
4 22 23 161 156
4 156 161 162 157
4 157 162 163 158
4 158 163 164 159
4 159 164 165 160
4 160 165 48 49
4 23 24 166 161
4 161 166 167 162
4 162 167 168 163
4 163 168 169 164
4 164 169 170 165
4 165 170 47 48
4 24 25 171 166
4 166 171 172 167
4 167 172 173 168
4 168 173 174 169
4 169 174 175 170
4 170 175 46 47
4 25 3 36 171
4 171 36 37 172
4 172 37 38 173
4 173 38 39 174
4 174 39 40 175
4 175 40 5 46
8 16 17 131 126 51 52 201 176
8 51 52 201 176 56 57 202 177
8 56 57 202 177 61 62 203 178
8 61 62 203 178 66 67 204 179
8 66 67 204 179 71 72 205 180
8 71 72 205 180 21 22 156 151
8 126 131 132 127 176 201 206 181
8 176 201 206 181 177 202 207 182
8 177 202 207 182 178 203 208 183
8 178 203 208 183 179 204 209 184
8 179 204 209 184 180 205 210 185
8 180 205 210 185 151 156 157 152
8 127 132 133 128 181 206 211 186
8 181 206 211 186 182 207 212 187
8 182 207 212 187 183 208 213 188
8 183 208 213 188 184 209 214 189
8 184 209 214 189 185 210 215 190
8 185 210 215 190 152 157 158 153
8 128 133 134 129 186 211 216 191
8 186 211 216 191 187 212 217 192
8 187 212 217 192 188 213 218 193
8 188 213 218 193 189 214 219 194
8 189 214 219 194 190 215 220 195
8 190 215 220 195 153 158 159 154
8 129 134 135 130 191 216 221 196
8 191 216 221 196 192 217 222 197
8 192 217 222 197 193 218 223 198
8 193 218 223 198 194 219 224 199
8 194 219 224 199 195 220 225 200
8 195 220 225 200 154 159 160 155
8 130 135 44 45 196 221 104 105
8 196 221 104 105 197 222 109 110
8 197 222 109 110 198 223 114 115
8 198 223 114 115 199 224 119 120
8 199 224 119 120 200 225 124 125
8 200 225 124 125 155 160 49 50
8 17 18 136 131 52 53 226 201
8 52 53 226 201 57 58 227 202
8 57 58 227 202 62 63 228 203
8 62 63 228 203 67 68 229 204
8 67 68 229 204 72 73 230 205
8 72 73 230 205 22 23 161 156
8 131 136 137 132 201 226 231 206
8 201 226 231 206 202 227 232 207
8 202 227 232 207 203 228 233 208
8 203 228 233 208 204 229 234 209
8 204 229 234 209 205 230 235 210
8 205 230 235 210 156 161 162 157
8 132 137 138 133 206 231 236 211
8 206 231 236 211 207 232 237 212
8 207 232 237 212 208 233 238 213
8 208 233 238 213 209 234 239 214
8 209 234 239 214 210 235 240 215
8 210 235 240 215 157 162 163 158
8 133 138 139 134 211 236 241 216
8 211 236 241 216 212 237 242 217
8 212 237 242 217 213 238 243 218
8 213 238 243 218 214 239 244 219
8 214 239 244 219 215 240 245 220
8 215 240 245 220 158 163 164 159
8 134 139 140 135 216 241 246 221
8 216 241 246 221 217 242 247 222
8 217 242 247 222 218 243 248 223
8 218 243 248 223 219 244 249 224
8 219 244 249 224 220 245 250 225
8 220 245 250 225 159 164 165 160
8 135 140 43 44 221 246 103 104
8 221 246 103 104 222 247 108 109
8 222 247 108 109 223 248 113 114
8 223 248 113 114 224 249 118 119
8 224 249 118 119 225 250 123 124
8 225 250 123 124 160 165 48 49
8 18 19 141 136 53 54 251 226
8 53 54 251 226 58 59 252 227
8 58 59 252 227 63 64 253 228
8 63 64 253 228 68 69 254 229
8 68 69 254 229 73 74 255 230
8 73 74 255 230 23 24 166 161
8 136 141 142 137 226 251 256 231
8 226 251 256 231 227 252 257 232
8 227 252 257 232 228 253 258 233
8 228 253 258 233 229 254 259 234
8 229 254 259 234 230 255 260 235
8 230 255 260 235 161 166 167 162
8 137 142 143 138 231 256 261 236
8 231 256 261 236 232 257 262 237
8 232 257 262 237 233 258 263 238
8 233 258 263 238 234 259 264 239
8 234 259 264 239 235 260 265 240
8 235 260 265 240 162 167 168 163
8 138 143 144 139 236 261 266 241
8 236 261 266 241 237 262 267 242
8 237 262 267 242 238 263 268 243
8 238 263 268 243 239 264 269 244
8 239 264 269 244 240 265 270 245
8 240 265 270 245 163 168 169 164
8 139 144 145 140 241 266 271 246
8 241 266 271 246 242 267 272 247
8 242 267 272 247 243 268 273 248
8 243 268 273 248 244 269 274 249
8 244 269 274 249 245 270 275 250
8 245 270 275 250 164 169 170 165
8 140 145 42 43 246 271 102 103
8 246 271 102 103 247 272 107 108
8 247 272 107 108 248 273 112 113
8 248 273 112 113 249 274 117 118
8 249 274 117 118 250 275 122 123
8 250 275 122 123 165 170 47 48
8 19 20 146 141 54 55 276 251
8 54 55 276 251 59 60 277 252
8 59 60 277 252 64 65 278 253
8 64 65 278 253 69 70 279 254
8 69 70 279 254 74 75 280 255
8 74 75 280 255 24 25 171 166
8 141 146 147 142 251 276 281 256
8 251 276 281 256 252 277 282 257
8 252 277 282 257 253 278 283 258
8 253 278 283 258 254 279 284 259
8 254 279 284 259 255 280 285 260
8 255 280 285 260 166 171 172 167
8 142 147 148 143 256 281 286 261
8 256 281 286 261 257 282 287 262
8 257 282 287 262 258 283 288 263
8 258 283 288 263 259 284 289 264
8 259 284 289 264 260 285 290 265
8 260 285 290 265 167 172 173 168
8 143 148 149 144 261 286 291 266
8 261 286 291 266 262 287 292 267
8 262 287 292 267 263 288 293 268
8 263 288 293 268 264 289 294 269
8 264 289 294 269 265 290 295 270
8 265 290 295 270 168 173 174 169
8 144 149 150 145 266 291 296 271
8 266 291 296 271 267 292 297 272
8 267 292 297 272 268 293 298 273
8 268 293 298 273 269 294 299 274
8 269 294 299 274 270 295 300 275
8 270 295 300 275 169 174 175 170
8 145 150 41 42 271 296 101 102
8 271 296 101 102 272 297 106 107
8 272 297 106 107 273 298 111 112
8 273 298 111 112 274 299 116 117
8 274 299 116 117 275 300 121 122
8 275 300 121 122 170 175 46 47
8 20 2 31 146 55 11 76 276
8 55 11 76 276 60 12 81 277
8 60 12 81 277 65 13 86 278
8 65 13 86 278 70 14 91 279
8 70 14 91 279 75 15 96 280
8 75 15 96 280 25 3 36 171
8 146 31 32 147 276 76 77 281
8 276 76 77 281 277 81 82 282
8 277 81 82 282 278 86 87 283
8 278 86 87 283 279 91 92 284
8 279 91 92 284 280 96 97 285
8 280 96 97 285 171 36 37 172
8 147 32 33 148 281 77 78 286
8 281 77 78 286 282 82 83 287
8 282 82 83 287 283 87 88 288
8 283 87 88 288 284 92 93 289
8 284 92 93 289 285 97 98 290
8 285 97 98 290 172 37 38 173
8 148 33 34 149 286 78 79 291
8 286 78 79 291 287 83 84 292
8 287 83 84 292 288 88 89 293
8 288 88 89 293 289 93 94 294
8 289 93 94 294 290 98 99 295
8 290 98 99 295 173 38 39 174
8 149 34 35 150 291 79 80 296
8 291 79 80 296 292 84 85 297
8 292 84 85 297 293 89 90 298
8 293 89 90 298 294 94 95 299
8 294 94 95 299 295 99 100 300
8 295 99 100 300 174 39 40 175
8 150 35 4 41 296 80 26 101
8 296 80 26 101 297 85 27 106
8 297 85 27 106 298 90 28 111
8 298 90 28 111 299 95 29 116
8 299 95 29 116 300 100 30 121
8 300 100 30 121 175 40 5 46
6 0 126 16 6 176 51
6 6 176 51 7 177 56
6 7 177 56 8 178 61
6 8 178 61 9 179 66
6 9 179 66 10 180 71
6 10 180 71 1 151 21
6 0 127 126 6 181 176
6 6 181 176 7 182 177
6 7 182 177 8 183 178
6 8 183 178 9 184 179
6 9 184 179 10 185 180
6 10 185 180 1 152 151
6 0 128 127 6 186 181
6 6 186 181 7 187 182
6 7 187 182 8 188 183
6 8 188 183 9 189 184
6 9 189 184 10 190 185
6 10 190 185 1 153 152
6 0 129 128 6 191 186
6 6 191 186 7 192 187
6 7 192 187 8 193 188
6 8 193 188 9 194 189
6 9 194 189 10 195 190
6 10 195 190 1 154 153
6 0 130 129 6 196 191
6 6 196 191 7 197 192
6 7 197 192 8 198 193
6 8 198 193 9 199 194
6 9 199 194 10 200 195
6 10 200 195 1 155 154
6 0 45 130 6 105 196
6 6 105 196 7 110 197
6 7 110 197 8 115 198
6 8 115 198 9 120 199
6 9 120 199 10 125 200
6 10 125 200 1 50 155

CELL_TYPES 456
1
1
1
1
1
1
3
3
3
3
3
3
3
3
3
3
3
3
3
3
3
3
3
3
3
3
3
3
3
3
3
3
3
3
3
3
3
3
3
3
3
3
3
3
3
3
3
3
3
3
3
3
3
3
3
3
3
3
3
3
9
9
9
9
9
9
9
9
9
9
9
9
9
9
9
9
9
9
9
9
9
9
9
9
9
9
9
9
9
9
9
9
9
9
9
9
9
9
9
9
9
9
9
9
9
9
9
9
9
9
9
9
9
9
9
9
9
9
9
9
9
9
9
9
9
9
9
9
9
9
9
9
9
9
9
9
9
9
9
9
9
9
9
9
9
9
9
9
9
9
9
9
9
9
9
9
9
9
9
9
9
9
9
9
9
9
9
9
5
5
5
5
5
5
9
9
9
9
9
9
9
9
9
9
9
9
9
9
9
9
9
9
9
9
9
9
9
9
9
9
9
9
9
9
5
5
5
5
5
5
9
9
9
9
9
9
9
9
9
9
9
9
9
9
9
9
9
9
9
9
9
9
9
9
9
9
9
9
9
9
12
12
12
12
12
12
12
12
12
12
12
12
12
12
12
12
12
12
12
12
12
12
12
12
12
12
12
12
12
12
12
12
12
12
12
12
12
12
12
12
12
12
12
12
12
12
12
12
12
12
12
12
12
12
12
12
12
12
12
12
12
12
12
12
12
12
12
12
12
12
12
12
12
12
12
12
12
12
12
12
12
12
12
12
12
12
12
12
12
12
12
12
12
12
12
12
12
12
12
12
12
12
12
12
12
12
12
12
12
12
12
12
12
12
12
12
12
12
12
12
12
12
12
12
12
12
12
12
12
12
12
12
12
12
12
12
12
12
12
12
12
12
12
12
12
12
12
12
12
12
12
12
12
12
12
12
12
12
12
12
12
12
12
12
12
12
12
12
12
12
12
12
12
12
12
12
12
12
12
12
13
13
13
13
13
13
13
13
13
13
13
13
13
13
13
13
13
13
13
13
13
13
13
13
13
13
13
13
13
13
13
13
13
13
13
13

CELL_DATA 456
SCALARS CellEntityIds int 1
LOOKUP_TABLE default
-1
-1
-1
-1
-1
-1
1
1
1
1
1
1
2
2
2
2
2
2
3
3
3
3
3
3
4
4
4
4
4
4
5
5
5
5
5
5
6
6
6
6
6
6
7
7
7
7
7
7
8
8
8
8
8
8
9
9
9
9
9
9
10
10
10
10
10
10
10
10
10
10
10
10
10
10
10
10
10
10
10
10
10
10
10
10
10
10
10
10
10
10
10
10
10
10
10
10
11
11
11
11
11
11
11
11
11
11
11
11
11
11
11
11
11
11
11
11
11
11
11
11
11
11
11
11
11
11
11
11
11
11
11
11
12
12
12
12
12
12
12
12
12
12
12
12
12
12
12
12
12
12
12
12
12
12
12
12
12
12
12
12
12
12
12
12
12
12
12
12
13
13
13
13
13
13
13
13
13
13
13
13
13
13
13
13
13
13
13
13
13
13
13
13
13
13
13
13
13
13
13
13
13
13
13
13
14
14
14
14
14
14
14
14
14
14
14
14
14
14
14
14
14
14
14
14
14
14
14
14
14
14
14
14
14
14
14
14
14
14
14
14
15
15
15
15
15
15
15
15
15
15
15
15
15
15
15
15
15
15
15
15
15
15
15
15
15
15
15
15
15
15
15
15
15
15
15
15
15
15
15
15
15
15
15
15
15
15
15
15
15
15
15
15
15
15
15
15
15
15
15
15
15
15
15
15
15
15
15
15
15
15
15
15
15
15
15
15
15
15
15
15
15
15
15
15
15
15
15
15
15
15
15
15
15
15
15
15
15
15
15
15
15
15
15
15
15
15
15
15
15
15
15
15
15
15
15
15
15
15
15
15
15
15
15
15
15
15
15
15
15
15
15
15
15
15
15
15
15
15
15
15
15
15
15
15
15
15
15
15
15
15
15
15
15
15
15
15
15
15
15
15
15
15
15
15
15
15
15
15
15
15
15
15
15
15
15
15
15
15
15
15
15
15
15
15
15
15
15
15
15
15
15
15
15
15
15
15
15
15
15
15
15
15
15
15
15
15
15
15
15
15
15
15
15
15
15
15
