# vtk DataFile Version 2.0
shape2mesh, Created by Gmsh 4.13.1
ASCII
DATASET UNSTRUCTURED_GRID
POINTS 217 double
0 -60 0
2 -60 10
10 -60 0
12 -60 10
5 -52 0
7 -52 10
0.3333333333333343 -60 1.666666666666672
0.6666666666666686 -60 3.333333333333343
1.000000000000003 -60 5.000000000000015
1.333333333333337 -60 6.666666666666687
1.666666666666671 -60 8.333333333333357
10.33333333333333 -60 1.666666666666672
10.66666666666667 -60 3.333333333333343
11 -60 5.000000000000015
11.33333333333334 -60 6.666666666666687
11.66666666666667 -60 8.333333333333357
2 -60 0
4 -60 0
6 -60 0
8 -60 0
4 -60 10
6 -60 10
8 -60 10
10 -60 10
5.333333333333334 -52 1.666666666666672
5.666666666666669 -52 3.333333333333343
6.000000000000003 -52 5.000000000000015
6.333333333333337 -52 6.666666666666687
6.666666666666671 -52 8.333333333333357
9 -58.4 0
8 -56.8 0
7.000000000000002 -55.2 0
6.000000000000002 -53.6 0
11 -58.4 10
10 -56.8 10
9.000000000000002 -55.2 10
8.000000000000002 -53.6 10
4 -53.6 0
3.000000000000001 -55.2 0
2.000000000000001 -56.8 0
1.000000000000002 -58.4 0
6 -53.6 10
5.000000000000001 -55.2 10
4.000000000000002 -56.8 10
3.000000000000002 -58.4 10
2.333333333333333 -60 1.666666666666667
4.333333333333332 -60 1.666666666666667
6.333333333333333 -60 1.666666666666666
8.333333333333332 -60 1.666666666666667
2.666666666666667 -60 3.333333333333333
4.666666666666665 -60 3.333333333333333
6.666666666666665 -60 3.333333333333332
8.666666666666666 -60 3.333333333333333
3 -60 5.000000000000001
5.000000000000001 -60 5.000000000000002
7.000000000000002 -60 5.000000000000002
9.000000000000002 -60 5.000000000000002
3.333333333333334 -60 6.666666666666668
5.333333333333334 -60 6.666666666666667
7.333333333333334 -60 6.666666666666667
9.333333333333334 -60 6.666666666666668
3.666666666666667 -60 8.333333333333332
5.666666666666666 -60 8.333333333333332
7.666666666666666 -60 8.333333333333332
9.666666666666666 -60 8.333333333333332
9.333333333333334 -58.4 1.666666666666667
8.333333333333334 -56.8 1.666666666666667
7.333333333333334 -55.2 1.666666666666666
6.333333333333335 -53.6 1.666666666666667
9.666666666666668 -58.4 3.333333333333333
8.666666666666668 -56.8 3.333333333333334
7.666666666666668 -55.2 3.333333333333333
6.666666666666668 -53.6 3.333333333333334
10 -58.4 5.000000000000002
9.000000000000002 -56.8 5.000000000000001
8.000000000000002 -55.2 5.000000000000001
7.000000000000002 -53.6 5.000000000000002
10.33333333333333 -58.4 6.666666666666668
9.333333333333336 -56.8 6.666666666666667
8.333333333333336 -55.2 6.666666666666669
7.333333333333334 -53.6 6.666666666666667
10.66666666666667 -58.4 8.333333333333332
9.666666666666668 -56.8 8.333333333333336
8.666666666666668 -55.2 8.333333333333336
7.666666666666668 -53.6 8.333333333333332
4.333333333333334 -53.6 1.666666666666667
3.333333333333334 -55.2 1.666666666666667
2.333333333333334 -56.8 1.666666666666666
1.333333333333335 -58.4 1.666666666666667
4.666666666666667 -53.6 3.333333333333333
3.666666666666667 -55.2 3.333333333333334
2.666666666666668 -56.8 3.333333333333333
1.666666666666668 -58.4 3.333333333333334
5.000000000000001 -53.6 5
4.000000000000001 -55.2 5
3.000000000000001 -56.8 5
2.000000000000001 -58.4 5
5.333333333333334 -53.6 6.666666666666667
4.333333333333334 -55.2 6.666666666666668
3.333333333333335 -56.8 6.666666666666666
2.333333333333334 -58.4 6.666666666666668
5.666666666666667 -53.6 8.333333333333332
4.666666666666668 -55.2 8.333333333333334
3.666666666666669 -56.8 8.333333333333336
2.666666666666667 -58.4 8.333333333333332
1.8 -59.68 0
1.600000000000001 -59.36 0
1.4 -59.04 0
1.200000000000002 -58.72 0
3.600000000000001 -59.36 0
3.200000000000001 -58.72 0
2.800000000000001 -58.08 0
2.400000000000001 -57.44 0
5.4 -59.04 0
4.800000000000001 -58.08 0
4.200000000000001 -57.12 0
3.600000000000001 -56.16 0
7.199999999999999 -58.72 0
6.4 -57.44 0
5.600000000000001 -56.16 0
4.800000000000001 -54.88 0
3.8 -59.68 10
3.600000000000001 -59.36 10
3.4 -59.04 10
3.200000000000002 -58.72 10
5.600000000000001 -59.36 10
5.200000000000001 -58.72 10
4.800000000000001 -58.08 10
4.400000000000001 -57.44 10
7.4 -59.04 10
6.800000000000001 -58.08 10
6.200000000000001 -57.12 10
5.600000000000001 -56.16 10
9.199999999999999 -58.72 10
8.4 -57.44 10
7.600000000000001 -56.16 10
6.800000000000001 -54.88 10
2.133333333333335 -59.67999999999998 1.666666666666665
2.466666666666667 -59.68000000000001 3.333333333333331
2.800000000000001 -59.68 4.999999999999997
3.133333333333331 -59.67999999999999 6.666666666666664
3.466666666666666 -59.67999999999997 8.333333333333325
1.933333333333335 -59.36000000000001 1.666666666666666
2.266666666666667 -59.35999999999999 3.333333333333331
2.600000000000001 -59.36000000000001 4.999999999999996
2.933333333333334 -59.36 6.666666666666664
3.266666666666665 -59.36000000000001 8.333333333333327
1.733333333333334 -59.03999999999999 1.666666666666665
2.066666666666666 -59.04 3.333333333333333
2.4 -59.03999999999998 4.999999999999996
2.733333333333333 -59.04000000000001 6.666666666666665
3.066666666666666 -59.03999999999999 8.333333333333329
1.533333333333335 -58.72000000000001 1.666666666666666
1.866666666666668 -58.71999999999997 3.333333333333333
2.200000000000001 -58.72 4.999999999999997
2.533333333333333 -58.72000000000001 6.666666666666664
2.866666666666665 -58.71999999999999 8.333333333333327
3.933333333333333 -59.36000000000001 1.666666666666665
4.266666666666667 -59.35999999999999 3.33333333333333
4.600000000000004 -59.36000000000002 4.999999999999995
4.933333333333334 -59.36000000000002 6.666666666666657
5.266666666666663 -59.36000000000001 8.333333333333321
3.533333333333333 -58.72000000000001 1.666666666666665
3.866666666666665 -58.71999999999998 3.333333333333331
4.200000000000002 -58.72 4.999999999999995
4.533333333333335 -58.72 6.666666666666663
4.866666666666664 -58.72 8.333333333333325
3.133333333333332 -58.08000000000001 1.666666666666664
3.466666666666667 -58.08000000000001 3.33333333333333
3.8 -58.07999999999998 4.999999999999994
4.133333333333335 -58.07999999999998 6.666666666666663
4.466666666666665 -58.08000000000001 8.333333333333325
2.733333333333333 -57.43999999999998 1.666666666666665
3.066666666666666 -57.44 3.333333333333331
3.400000000000001 -57.44 4.999999999999995
3.733333333333333 -57.44 6.666666666666663
4.066666666666666 -57.44 8.333333333333321
5.733333333333334 -59.04000000000001 1.666666666666663
6.066666666666667 -59.04000000000002 3.333333333333326
6.400000000000002 -59.04000000000002 4.999999999999991
6.733333333333331 -59.04000000000001 6.666666666666654
7.066666666666664 -59.04000000000001 8.333333333333318
5.133333333333336 -58.08000000000001 1.666666666666664
5.466666666666663 -58.08000000000001 3.333333333333328
5.800000000000002 -58.07999999999998 4.999999999999992
6.133333333333332 -58.07999999999999 6.666666666666654
6.466666666666667 -58.08000000000001 8.333333333333318
4.533333333333332 -57.12000000000001 1.666666666666664
4.866666666666664 -57.11999999999999 3.333333333333328
5.199999999999998 -57.12000000000001 4.999999999999994
5.533333333333331 -57.12000000000002 6.666666666666658
5.866666666666664 -57.12 8.333333333333318
3.933333333333334 -56.15999999999998 1.666666666666665
4.266666666666665 -56.16000000000002 3.333333333333329
4.600000000000002 -56.16 4.999999999999991
4.933333333333332 -56.16 6.666666666666655
5.266666666666666 -56.15999999999998 8.333333333333318
7.533333333333334 -58.71999999999999 1.666666666666663
7.866666666666666 -58.71999999999998 3.333333333333327
8.199999999999998 -58.72000000000001 4.999999999999993
8.533333333333326 -58.72 6.666666666666651
8.866666666666662 -58.72 8.333333333333314
6.733333333333337 -57.43999999999998 1.666666666666663
7.066666666666668 -57.43999999999998 3.333333333333327
7.4 -57.44 4.999999999999991
7.733333333333333 -57.43999999999998 6.666666666666655
8.066666666666665 -57.43999999999998 8.333333333333314
5.933333333333327 -56.15999999999997 1.666666666666663
6.266666666666664 -56.16 3.333333333333325
6.599999999999998 -56.15999999999999 4.999999999999991
6.933333333333334 -56.16 6.666666666666655
7.266666666666667 -56.16 8.333333333333314
5.133333333333336 -54.88 1.666666666666664
5.466666666666666 -54.87999999999999 3.333333333333327
5.8 -54.88 4.999999999999993
6.133333333333334 -54.88 6.666666666666655
6.466666666666665 -54.88 8.333333333333314

CELLS 1134 5286
1 0
1 1
1 2
1 3
1 4
1 5
2 0 6
2 6 7
2 7 8
2 8 9
2 9 10
2 10 1
2 2 11
2 11 12
2 12 13
2 13 14
2 14 15
2 15 3
2 0 16
2 16 17
2 17 18
2 18 19
2 19 2
2 1 20
2 20 21
2 21 22
2 22 23
2 23 3
2 4 24
2 24 25
2 25 26
2 26 27
2 27 28
2 28 5
2 2 29
2 29 30
2 30 31
2 31 32
2 32 4
2 3 33
2 33 34
2 34 35
2 35 36
2 36 5
2 4 37
2 37 38
2 38 39
2 39 40
2 40 0
2 5 41
2 41 42
2 42 43
2 43 44
2 44 1
3 0 16 6
3 16 45 6
3 16 17 45
3 17 46 45
3 17 18 46
3 18 47 46
3 18 19 47
3 19 48 47
3 19 2 48
3 2 11 48
3 6 45 7
3 45 49 7
3 45 46 49
3 46 50 49
3 46 47 50
3 47 51 50
3 47 48 51
3 48 52 51
3 48 11 52
3 11 12 52
3 7 49 8
3 49 53 8
3 49 50 53
3 50 54 53
3 50 51 54
3 51 55 54
3 51 52 55
3 52 56 55
3 52 12 56
3 12 13 56
3 8 53 9
3 53 57 9
3 53 54 57
3 54 58 57
3 54 55 58
3 55 59 58
3 55 56 59
3 56 60 59
3 56 13 60
3 13 14 60
3 9 57 10
3 57 61 10
3 57 58 61
3 58 62 61
3 58 59 62
3 59 63 62
3 59 60 63
3 60 64 63
3 60 14 64
3 14 15 64
3 10 61 1
3 61 20 1
3 61 62 20
3 62 21 20
3 62 63 21
3 63 22 21
3 63 64 22
3 64 23 22
3 64 15 23
3 15 3 23
3 2 29 11
3 29 65 11
3 29 30 65
3 30 66 65
3 30 31 66
3 31 67 66
3 31 32 67
3 32 68 67
3 32 4 68
3 4 24 68
3 11 65 12
3 65 69 12
3 65 66 69
3 66 70 69
3 66 67 70
3 67 71 70
3 67 68 71
3 68 72 71
3 68 24 72
3 24 25 72
3 12 69 13
3 69 73 13
3 69 70 73
3 70 74 73
3 70 71 74
3 71 75 74
3 71 72 75
3 72 76 75
3 72 25 76
3 25 26 76
3 13 73 14
3 73 77 14
3 73 74 77
3 74 78 77
3 74 75 78
3 75 79 78
3 75 76 79
3 76 80 79
3 76 26 80
3 26 27 80
3 14 77 15
3 77 81 15
3 77 78 81
3 78 82 81
3 78 79 82
3 79 83 82
3 79 80 83
3 80 84 83
3 80 27 84
3 27 28 84
3 15 81 3
3 81 33 3
3 81 82 33
3 82 34 33
3 82 83 34
[...]
CELL_DATA 1134
SCALARS CellEntityIds int 1
LOOKUP_TABLE default
-1
-1
-1
-1
-1
-1
1
1
1
1
1
1
2
2
2
2
2
2
3
3
3
3
3
4
4
4
4
4
5
5
5
5
5
5
6
6
6
6
6
7
7
7
7
7
8
8
8
8
8
9
9
9
9
9
10
10
10
10
10
10
10
10
10
10
10
10
10
10
10
10
10
10
10
10
10
10
10
10
10
10
10
10
10
10
10
10
10
10
10
10
10
10
10
10
10
10
10
10
10
10
10
10
10
10
10
10
10
10
10
10
10
10
10
10
11
11
11
11
11
11
11
11
11
11
11
11
11
11
11
11
11
11
11
11
11
11
11
11
11
11
11
11
11
11
11
11
11
11
11
11
11
11
11
11
11
11
11
11
11
11
11
11
11
11
11
11
11
11
11
11
11
11
11
11
12
12
12
12
12
12
12
12
12
12
12
12
12
12
12
12
12
12
12
12
12
12
12
12
12
12
12
12
12
12
12
12
12
12
12
12
12
12
12
12
12
12
12
12
12
12
12
12
12
12
12
12
12
12
12
12
12
12
12
12
13
13
13
13
13
13
13
13
13
13
13
13
13
13
13
13
13
13
13
13
13
13
13
13
13
13
13
13
13
13
13
13
13
13
13
13
13
13
13
13
13
13
13
13
13
14
14
14
14
14
14
14
14
14
14
14
14
14
14
14
14
14
14
14
14
14
14
14
14
14
14
14
14
14
14
14
14
14
14
14
14
14
14
14
14
14
14
14
14
14
15
15
15
15
15
15
15
15
15
15
15
15
15
15
15
15
15
15
15
15
15
15
15
15
15
15
15
15
15
15
15
15
15
15
15
15
15
15
15
15
15
15
15
15
15
15
15
15
15
15
15
15
15
15
15
15
15
15
15
15
15
15
15
15
15
15
15
15
15
15
15
15
15
15
15
15
15
15
15
15
15
15
15
15
15
15
15
15
15
15
15
15
15
15
15
15
15
15
15
15
15
15
15
15
15
15
15
15
15
15
15
15
15
15
15
15
15
15
15
15
15
15
15
15
15
15
15
15
15
15
15
15
15
15
15
15
15
15
15
15
15
15
15
15
15
15
15
15
15
15
15
15
15
15
15
15
15
15
15
15
15
15
15
15
15
15
15
15
15
15
15
15
15
15
15
15
15
15
15
15
15
15
15
15
15
15
15
15
15
15
15
15
15
15
15
15
15
15
15
15
15
15
15
15
15
15
15
15
15
15
15
15
15
15
15
15
15
15
15
15
15
15
15
15
15
15
15
15
15
15
15
15
15
15
15
15
15
15
15
15
15
15
15
15
15
15
15
15
15
15
15
15
15
15
15
15
15
15
15
15
15
15
15
15
15
15
15
15
15
15
15
15
15
15
15
15
15
15
15
15
15
15
15
15
15
15
15
15
15
15
15
15
15
15
15
15
15
15
15
15
15
15
15
15
15
15
15
15
15
15
15
15
15
15
15
15
15
15
15
15
15
15
15
15
15
15
15
15
15
15
15
15
15
15
15
15
15
15
15
15
15
15
15
15
15
15
15
15
15
15
15
15
15
15
15
15
15
15
15
15
15
15
15
15
15
15
15
15
15
15
15
15
15
15
15
15
15
15
15
15
15
15
15
15
15
15
15
15
15
15
15
15
15
15
15
15
15
15
15
15
15
15
15
15
15
15
15
15
15
15
15
15
15
15
15
15
15
15
15
15
15
15
15
15
15
15
15
15
15
15
15
15
15
15
15
15
15
15
15
15
15
15
15
15
15
15
15
15
15
15
15
15
15
15
15
15
15
15
15
15
15
15
15
15
15
15
15
15
15
15
15
15
15
15
15
15
15
15
15
15
15
15
15
15
15
15
15
15
15
15
15
15
15
15
15
15
15
15
15
15
15
15
15
15
15
15
15
15
15
15
15
15
15
15
15
15
15
15
15
15
15
15
15
15
15
15
15
15
15
15
15
15
15
15
15
15
15
15
15
15
15
15
15
15
15
15
15
15
15
15
15
15
15
15
15
15
15
15
15
15
15
15
15
15
15
15
15
15
15
15
15
15
15
15
15
15
15
15
15
15
15
15
15
15
15
15
15
15
15
15
15
15
15
15
15
15
15
15
15
15
15
15
15
15
15
15
15
15
15
15
15
15
15
15
15
15
15
15
15
15
15
15
15
15
15
15
15
15
15
15
15
15
15
15
15
15
15
15
15
15
15
15
15
15
15
15
15
15
15
15
15
15
15
15
15
15
15
15
15
15
15
15
15
15
15
15
15
15
15
15
15
15
15
15
15
15
15
15
15
15
15
15
15
15
15
15
15
15
15
15
15
15
15
15
15
15
15
15
15
15
15
15
15
15
15
15
15
15
15
15
15
15
15
15
15
15
15
15
15
15
15
15
15
15
15
15
15
15
15
15
15
15
15
15
15
15
15
15
15
15
15
15
15
15
15
15
15
15
15
15
15
15
15
15
15
15
15
15
15
15
15
15
15
15
15
15
15
15
15
15
15
15
15
15
15
15
15
15
15
15
15
15
15
15
15
15
15
15
15
15
15
15
15
15
15
15
15
15
15
15
15
15
15
15
15
15
15
15
15
15
